  144  144    1    1
  0.2787158E+02  0.1082800E-08  0.1766490E-08  0.2362770E-08  0.5000000E-16
  1.000000000000000E-004
  CAR 
 unknown system                          
   1341      4    816
