       N       E                     dE             d eps       ncg     rms          rms(c)
DAV:   1     0.145489075622E+05    0.14549E+05   -0.47999E+05  6624   0.162E+03
