 vasp.6.3.2 27Jun22 (build May 08 2023 15:00:52) complex                        
  
 executed on             LinuxIFC date 2023.05.26  21:43:18
 running on  192 total cores
 distrk:  each k-point on  192 cores,    1 groups
 distr:  one band on NCORE=   8 cores,   24 groups


--------------------------------------------------------------------------------------------------------


 INCAR:
   PREC = Normal
   NCORE = 8
   ISYM = 0
   LREAL = A
   ISIF = 2
   IBRION = 2
   NSW = 0
   POTIM = 0.05
   EDIFF = 1E-4
   EDIFFG = -0.03
   ENCUT = 400
   ISPIN = 1
   NELM = 6
   NELMIN = 6
   ALGO = F
   LWAVE = F
   LCHARG = F
   IVDW = 11
   ISMEAR = 0
   SIGMA = 0.05

 POTCAR:    PAW_PBE Cu 22Jun2005                  
 POTCAR:    PAW_PBE C 08Apr2002                   
 POTCAR:    PAW_PBE Cl 06Sep2000                  
 POTCAR:    PAW_PBE O 08Apr2002                   
 POTCAR:    PAW_PBE Cu 22Jun2005                  
   VRHFIN =Cu: d10 p1                                                                               
   LEXCH  = PE                                                                                      
   EATOM  =  1390.9808 eV,  102.2342 Ry                                                             
                                                                                                    
   TITEL  = PAW_PBE Cu 22Jun2005                                                                    
   LULTRA =        F    use ultrasoft PP ?                                                          
   IUNSCR =        1    unscreen: 0-lin 1-nonlin 2-no                                               
   RPACOR =    2.000    partial core radius                                                         
   POMASS =   63.546; ZVAL   =   11.000    mass and valenz                                          
   RCORE  =    2.300    outmost cutoff radius                                                       
   RWIGS  =    2.200; RWIGS  =    1.164    wigner-seitz radius (au A)                               
   ENMAX  =  295.446; ENMIN  =  221.585 eV                                                          
   ICORE  =        3    local potential                                                             
   LCOR   =        T    correct aug charges                                                         
   LPAW   =        T    paw PP                                                                      
   EAUG   =  586.980                                                                                
   DEXC   =    0.000                                                                                
   RMAX   =    2.344    core radius for proj-oper                                                   
   RAUG   =    1.300    factor for augmentation sphere                                              
   RDEP   =    2.302    radius for radial grids                                                     
   RDEPT  =    1.771    core radius for aug-charge                                                  
                                                                                                    
   Atomic configuration                                                                             
    9 entries                                                                                       
     n  l   j            E        occ.                                                              
     1  0  0.50     -8850.2468   2.0000                                                             
     2  0  0.50     -1062.3498   2.0000                                                             
     2  1  1.50      -916.8226   6.0000                                                             
     3  0  0.50      -114.6929   2.0000                                                             
     3  1  1.50       -72.1325   6.0000                                                             
     3  2  2.50        -5.0394  10.0000                                                             
     4  0  0.50        -4.6097   1.0000                                                             
     4  1  0.50        -4.0817   0.0000                                                             
     4  3  2.50        -1.3606   0.0000                                                             
   Description                                                                                      
     l       E           TYP  RCUT    TYP  RCUT                                                     
     2     -5.0393973     23  2.200                                                                 
     2     10.8846608     23  2.200                                                                 
     0     -4.6097109     23  2.200                                                                 
     0      8.2520465     23  2.200                                                                 
     1     -2.7211652     23  2.200                                                                 
     1     21.7055443     23  2.200                                                                 
     3      2.7211652     23  2.300                                                                 
  local pseudopotential read in
  partial core-charges read in
  partial kinetic energy density read in
  atomic valenz-charges read in
  non local Contribution for L=           2  read in
    real space projection operators read in
  non local Contribution for L=           2  read in
    real space projection operators read in
  non local Contribution for L=           0  read in
    real space projection operators read in
  non local Contribution for L=           0  read in
    real space projection operators read in
  non local Contribution for L=           1  read in
    real space projection operators read in
  non local Contribution for L=           1  read in
    real space projection operators read in
    PAW grid and wavefunctions read in
 
   number of l-projection  operators is LMAX  =           6
   number of lm-projection operators is LMMAX =          18
 
 POTCAR:    PAW_PBE C 08Apr2002                   
   VRHFIN =C: s2p2                                                                                  
   LEXCH  = PE                                                                                      
   EATOM  =   147.1560 eV,   10.8157 Ry                                                             
                                                                                                    
   TITEL  = PAW_PBE C 08Apr2002                                                                     
   LULTRA =        F    use ultrasoft PP ?                                                          
   IUNSCR =        1    unscreen: 0-lin 1-nonlin 2-no                                               
   RPACOR =    1.200    partial core radius                                                         
   POMASS =   12.011; ZVAL   =    4.000    mass and valenz                                          
   RCORE  =    1.500    outmost cutoff radius                                                       
   RWIGS  =    1.630; RWIGS  =    0.863    wigner-seitz radius (au A)                               
   ENMAX  =  400.000; ENMIN  =  300.000 eV                                                          
   ICORE  =        2    local potential                                                             
   LCOR   =        T    correct aug charges                                                         
   LPAW   =        T    paw PP                                                                      
   EAUG   =  644.873                                                                                
   DEXC   =    0.000                                                                                
   RMAX   =    1.529    core radius for proj-oper                                                   
   RAUG   =    1.300    factor for augmentation sphere                                              
   RDEP   =    1.501    radius for radial grids                                                     
   RDEPT  =    1.300    core radius for aug-charge                                                  
                                                                                                    
   Atomic configuration                                                                             
    4 entries                                                                                       
     n  l   j            E        occ.                                                              
     1  0  0.50      -273.3789   2.0000                                                             
     2  0  0.50       -13.7508   2.0000                                                             
     2  1  0.50        -5.2854   2.0000                                                             
     3  2  1.50        -5.4423   0.0000                                                             
   Description                                                                                      
     l       E           TYP  RCUT    TYP  RCUT                                                     
     0    -13.7508458     23  1.200                                                                 
     0     -8.2022199     23  1.200                                                                 
     1     -5.2854383     23  1.500                                                                 
     1     34.0145650     23  1.500                                                                 
     2     -5.4423304      7  1.500                                                                 
  local pseudopotential read in
  partial core-charges read in
  partial kinetic energy density read in
  atomic valenz-charges read in
  non local Contribution for L=           0  read in
    real space projection operators read in
  non local Contribution for L=           0  read in
    real space projection operators read in
  non local Contribution for L=           1  read in
    real space projection operators read in
  non local Contribution for L=           1  read in
    real space projection operators read in
    PAW grid and wavefunctions read in
 
   number of l-projection  operators is LMAX  =           4
   number of lm-projection operators is LMMAX =           8
 
 POTCAR:    PAW_PBE Cl 06Sep2000                  
   VRHFIN =Cl: s2p5                                                                                 
   LEXCH  = PE                                                                                      
   EATOM  =   409.7259 eV,   30.1140 Ry                                                             
                                                                                                    
   TITEL  = PAW_PBE Cl 06Sep2000                                                                    
   LULTRA =        F    use ultrasoft PP ?                                                          
   IUNSCR =        1    unscreen: 0-lin 1-nonlin 2-no                                               
   RPACOR =    1.500    partial core radius                                                         
   POMASS =   35.453; ZVAL   =    7.000    mass and valenz                                          
   RCORE  =    1.900    outmost cutoff radius                                                       
   RWIGS  =    2.100; RWIGS  =    1.111    wigner-seitz radius (au A)                               
   ENMAX  =  262.472; ENMIN  =  196.854 eV                                                          
   ICORE  =        2    local potential                                                             
   LCOR   =        T    correct aug charges                                                         
   LPAW   =        T    paw PP                                                                      
   EAUG   =  356.192                                                                                
   DEXC   =    0.000                                                                                
   RMAX   =    1.945    core radius for proj-oper                                                   
   RAUG   =    1.300    factor for augmentation sphere                                              
   RDEP   =    2.020    radius for radial grids                                                     
   RDEPT  =    1.678    core radius for aug-charge                                                  
                                                                                                    
   Atomic configuration                                                                             
    6 entries                                                                                       
     n  l   j            E        occ.                                                              
     1  0  0.50     -2751.1850   2.0000                                                             
     2  0  0.50      -252.6861   2.0000                                                             
     2  1  1.50      -191.6157   6.0000                                                             
     3  0  0.50       -20.6916   2.0000                                                             
     3  1  0.50        -8.5949   5.0000                                                             
     3  2  1.50        -8.1635   0.0000                                                             
   Description                                                                                      
     l       E           TYP  RCUT    TYP  RCUT                                                     
     0    -20.6915656     23  1.900                                                                 
     0    -22.0521482     23  1.900                                                                 
     1     -8.5948577     23  1.900                                                                 
     1     -5.3847331     23  1.900                                                                 
     2     -8.1634956     23  1.900                                                                 
  local pseudopotential read in
  partial core-charges read in
  partial kinetic energy density read in
  atomic valenz-charges read in
  non local Contribution for L=           0  read in
    real space projection operators read in
  non local Contribution for L=           0  read in
    real space projection operators read in
  non local Contribution for L=           1  read in
    real space projection operators read in
  non local Contribution for L=           1  read in
    real space projection operators read in
    PAW grid and wavefunctions read in
 
   number of l-projection  operators is LMAX  =           4
   number of lm-projection operators is LMMAX =           8
 
 POTCAR:    PAW_PBE O 08Apr2002                   
   VRHFIN =O: s2p4                                                                                  
   LEXCH  = PE                                                                                      
   EATOM  =   432.3788 eV,   31.7789 Ry                                                             
                                                                                                    
   TITEL  = PAW_PBE O 08Apr2002                                                                     
   LULTRA =        F    use ultrasoft PP ?                                                          
   IUNSCR =        1    unscreen: 0-lin 1-nonlin 2-no                                               
   RPACOR =    1.200    partial core radius                                                         
   POMASS =   16.000; ZVAL   =    6.000    mass and valenz                                          
   RCORE  =    1.520    outmost cutoff radius                                                       
   RWIGS  =    1.550; RWIGS  =    0.820    wigner-seitz radius (au A)                               
   ENMAX  =  400.000; ENMIN  =  300.000 eV                                                          
   ICORE  =        2    local potential                                                             
   LCOR   =        T    correct aug charges                                                         
   LPAW   =        T    paw PP                                                                      
   EAUG   =  605.392                                                                                
   DEXC   =    0.000                                                                                
   RMAX   =    1.553    core radius for proj-oper                                                   
   RAUG   =    1.300    factor for augmentation sphere                                              
   RDEP   =    1.550    radius for radial grids                                                     
   RDEPT  =    1.329    core radius for aug-charge                                                  
                                                                                                    
   Atomic configuration                                                                             
    4 entries                                                                                       
     n  l   j            E        occ.                                                              
     1  0  0.50      -514.6923   2.0000                                                             
     2  0  0.50       -23.9615   2.0000                                                             
     2  1  0.50        -9.0305   4.0000                                                             
     3  2  1.50        -9.5241   0.0000                                                             
   Description                                                                                      
     l       E           TYP  RCUT    TYP  RCUT                                                     
     0    -23.9615318     23  1.200                                                                 
     0     -9.5240782     23  1.200                                                                 
     1     -9.0304911     23  1.520                                                                 
     1      8.1634956     23  1.520                                                                 
     2     -9.5240782      7  1.500                                                                 
  local pseudopotential read in
  partial core-charges read in
  partial kinetic energy density read in
  kinetic energy density of atom read in
  atomic valenz-charges read in
  non local Contribution for L=           0  read in
    real space projection operators read in
  non local Contribution for L=           0  read in
    real space projection operators read in
  non local Contribution for L=           1  read in
    real space projection operators read in
  non local Contribution for L=           1  read in
    real space projection operators read in
    PAW grid and wavefunctions read in
 
   number of l-projection  operators is LMAX  =           4
   number of lm-projection operators is LMMAX =           8
 
 Optimization of the real space projectors (new method)

 maximal supplied QI-value         = 16.25
 optimisation between [QCUT,QGAM] = [ 10.24, 20.48] = [ 29.35,117.42] Ry 
 Optimized for a Real-space Cutoff    1.55 Angstroem

   l    n(q)    QCUT    max X(q) W(low)/X(q) W(high)/X(q)  e(spline) 
   2      9    10.239     4.610    0.85E-04    0.29E-03    0.14E-06
   2      9    10.239     8.522    0.15E-03    0.50E-03    0.27E-06
   0     10    10.239    51.609    0.45E-04    0.99E-04    0.10E-06
   0     10    10.239    27.747    0.40E-04    0.93E-04    0.97E-07
   1      9    10.239    20.408    0.15E-03    0.78E-05    0.15E-06
   1      9    10.239    13.425    0.13E-03    0.71E-05    0.14E-06
 Optimization of the real space projectors (new method)

 maximal supplied QI-value         = 25.13
 optimisation between [QCUT,QGAM] = [ 10.05, 20.36] = [ 28.30,116.06] Ry 
 Optimized for a Real-space Cutoff    1.30 Angstroem

   l    n(q)    QCUT    max X(q) W(low)/X(q) W(high)/X(q)  e(spline) 
   0      8    10.053   115.676    0.49E-03    0.72E-03    0.18E-06
   0      8    10.053    87.132    0.49E-03    0.71E-03    0.18E-06
   1      7    10.053     4.429    0.32E-03    0.31E-03    0.18E-06
   1      7    10.053     2.733    0.23E-03    0.19E-03    0.20E-06
 Optimization of the real space projectors (new method)

 maximal supplied QI-value         = 19.84
 optimisation between [QCUT,QGAM] = [ 10.12, 20.44] = [ 28.68,116.96] Ry 
 Optimized for a Real-space Cutoff    1.23 Angstroem

   l    n(q)    QCUT    max X(q) W(low)/X(q) W(high)/X(q)  e(spline) 
   0      7    10.119   168.010    0.54E-04    0.25E-03    0.48E-07
   0      7    10.119   164.674    0.53E-04    0.25E-03    0.47E-07
   1      7    10.119    69.222    0.45E-03    0.63E-03    0.13E-06
   1      7    10.119    56.786    0.45E-03    0.62E-03    0.13E-06
 Optimization of the real space projectors (new method)

 maximal supplied QI-value         = 24.76
 optimisation between [QCUT,QGAM] = [ 10.15, 20.30] = [ 28.85,115.39] Ry 
 Optimized for a Real-space Cutoff    1.38 Angstroem

   l    n(q)    QCUT    max X(q) W(low)/X(q) W(high)/X(q)  e(spline) 
   0      8    10.150    20.381    0.22E-03    0.32E-03    0.29E-06
   0      8    10.150    15.268    0.23E-03    0.35E-03    0.30E-06
   1      8    10.150     5.964    0.46E-03    0.53E-03    0.21E-06
   1      8    10.150     5.382    0.38E-03    0.45E-03    0.19E-06
  PAW_PBE Cu 22Jun2005                  :
 energy of atom  1       EATOM=-1390.9808
 kinetic energy error for atom=    0.0232 (will be added to EATOM!!)
  PAW_PBE C 08Apr2002                   :
 energy of atom  2       EATOM= -147.1560
 kinetic energy error for atom=    0.0288 (will be added to EATOM!!)
  PAW_PBE Cl 06Sep2000                  :
 energy of atom  3       EATOM= -409.7259
 kinetic energy error for atom=    0.0089 (will be added to EATOM!!)
  PAW_PBE O 08Apr2002                   :
 energy of atom  4       EATOM= -432.3788
 kinetic energy error for atom=    0.1156 (will be added to EATOM!!)
 
 
 POSCAR: Cu96 C2 Cl1 O45
  positions in direct lattice
  No initial velocities read in
 exchange correlation table for  LEXCH =        8
   RHO(1)=    0.500       N(1)  =     2000
   RHO(2)=  100.500       N(2)  =     4000
 


--------------------------------------------------------------------------------------------------------


 ion  position               nearest neighbor table
   1  0.144  0.192  0.346- 105 1.93  13 2.53  25 2.53   5 2.74  21 2.74
   2  0.999  1.000  0.439- 106 1.90 100 1.90  22 2.72   6 2.73
   3  0.337  0.117  0.571- 107 1.90 101 1.90   7 2.74  23 2.75
   4  0.198  0.264  0.665- 102 1.94  48 2.45  44 2.46   8 2.73  24 2.74
   5  0.410  0.213  0.333- 104 1.83 122 1.87   1 2.74  17 2.75  13 2.79
   6  0.257  0.009  0.451- 133 1.86 101 1.87   2 2.73  18 2.74
   7  0.081  0.109  0.555- 102 1.85 106 1.86  19 2.73   3 2.74
   8  0.447  0.260  0.660- 107 1.96  44 2.44  64 2.46  20 2.68   4 2.73  27 2.75  15 2.77
   9  0.419  0.058  0.327- 104 1.83 108 1.87  17 2.52  29 2.69  13 2.72
  10  0.255  0.175  0.457- 105 1.86 101 1.86  14 2.69  30 2.72
  11  0.090  0.286  0.560- 102 1.88 121 1.88  15 2.70  31 2.72  48 2.76  24 2.77
  12  0.425  0.065  0.678- 111 1.83 107 1.86  68 2.46  32 2.68  16 2.73
  13  0.168  0.058  0.328- 104 1.83 100 1.87   1 2.53  25 2.69   9 2.72   5 2.79
  14  0.007  0.175  0.457- 105 1.86 109 1.87  10 2.69  26 2.72
  15  0.339  0.286  0.560- 102 1.88 127 1.88  11 2.70  27 2.72   8 2.77  44 2.77
  16  0.172  0.064  0.677- 103 1.83 107 1.86  68 2.46  28 2.68  12 2.73
  17  0.643  0.191  0.345- 113 1.93   9 2.52  29 2.53   5 2.75  21 2.75
  18  0.499  0.998  0.438- 114 1.90 108 1.90  22 2.73   6 2.74
  19  0.838  0.118  0.572- 109 1.90 115 1.90   7 2.73  23 2.74
  20  0.694  0.260  0.664- 110 1.96  60 2.45  64 2.45   8 2.68  24 2.69
  21  0.910  0.213  0.333- 112 1.83 116 1.87   1 2.74  17 2.75
  22  0.757  0.010  0.451- 140 1.86 109 1.87   2 2.72  18 2.73
  23  0.581  0.107  0.553- 110 1.84 114 1.86  19 2.74   3 2.75
  24  0.943  0.260  0.660- 115 1.96  48 2.44  60 2.45  20 2.69   4 2.74  31 2.75  11 2.77
  25  0.919  0.057  0.328- 112 1.83 100 1.87   1 2.53  13 2.69  29 2.73
  26  0.756  0.175  0.457- 113 1.87 109 1.87  30 2.69  14 2.72
  27  0.590  0.286  0.560- 110 1.88 127 1.88  31 2.69  15 2.72   8 2.75
  28  0.925  0.065  0.677- 103 1.83 115 1.86  84 2.45  16 2.68  32 2.74
  29  0.667  0.058  0.328- 112 1.83 108 1.87  17 2.53   9 2.69  25 2.73
  30  0.507  0.175  0.456- 113 1.87 101 1.87  26 2.69  10 2.72
  31  0.839  0.286  0.560- 110 1.88 121 1.89  27 2.69  11 2.72  24 2.75
  32  0.673  0.066  0.678- 111 1.83 115 1.86  84 2.45  12 2.68  28 2.74
  33  0.133  0.512  0.338- 120 1.91  45 2.51  57 2.51  53 2.75  37 2.76
  34  0.003  0.338  0.446- 121 1.90 116 1.91  54 2.72  38 2.72
  35  0.335  0.446  0.574- 117 1.97  40 2.41  48 2.52  44 2.52  55 2.74  39 2.74
  36  0.134  0.519  0.667- 118 1.95  60 2.43  48 2.44  56 2.66  39 2.68  40 2.76
  37  0.401  0.535  0.322- 119 1.83 136 1.87  49 2.76  33 2.76
  38  0.258  0.344  0.456- 105 1.86 117 1.87  50 2.72  34 2.72
  39  0.092  0.458  0.562- 121 1.89 118 1.90  36 2.68  51 2.72  35 2.74  48 2.77
  40  0.390  0.520  0.664-  97 2.15  99 2.30  35 2.41  44 2.48  48 2.49  52 2.75  36 2.76
  41  0.408  0.379  0.328- 119 1.83 122 1.87  49 2.51  45 2.68  61 2.73
  42  0.253  0.506  0.452- 117 1.86 120 1.87  46 2.68  62 2.74
  43  0.089  0.620  0.550- 118 1.85 134 1.87  63 2.68  47 2.74  71 2.78
  44  0.424  0.391  0.655-  98 2.00  52 2.44   8 2.44   4 2.46  40 2.48  35 2.52  64 2.66  55 2.77
                            15 2.77
  45  0.160  0.379  0.328- 119 1.83 116 1.87  33 2.51  41 2.68  57 2.73
  46  0.005  0.505  0.452- 123 1.87 120 1.87  42 2.68  58 2.73
  47  0.341  0.619  0.553- 118 1.84 141 1.86  59 2.67  87 2.73  43 2.74
  48  0.162  0.391  0.655-  36 2.44  24 2.44   4 2.45  40 2.49  35 2.52  60 2.67  11 2.76  39 2.77

  49  0.634  0.512  0.338- 126 1.91  41 2.51  61 2.51  53 2.76  37 2.76
  50  0.504  0.338  0.446- 127 1.89 122 1.91  54 2.72  38 2.72
  51  0.834  0.445  0.575- 123 1.98  56 2.44  60 2.49  64 2.49  55 2.72  39 2.72
  52  0.644  0.520  0.667-  97 1.95 124 1.96  98 2.07  64 2.43  44 2.44  56 2.66  55 2.68  40 2.75

  53  0.900  0.534  0.320- 125 1.83 128 1.87  33 2.75  49 2.76  61 2.79  57 2.79
  54  0.757  0.343  0.456- 113 1.87 123 1.87  34 2.72  50 2.72
  55  0.595  0.458  0.561- 127 1.89 124 1.90  52 2.68  51 2.72  35 2.74  44 2.77
  56  0.895  0.527  0.663- 131 1.87  51 2.44  64 2.53  60 2.53  52 2.66  36 2.66
  57  0.908  0.378  0.327- 125 1.83 116 1.87  33 2.51  61 2.69  45 2.73  53 2.79
  58  0.753  0.505  0.452- 123 1.87 126 1.87  62 2.68  46 2.73
  59  0.587  0.619  0.552- 124 1.84 141 1.86  47 2.67  87 2.73  63 2.74
  60  0.915  0.390  0.657-  36 2.43  20 2.45  24 2.45  51 2.49  56 2.53  64 2.66  48 2.67
  61  0.659  0.378  0.327- 125 1.83 122 1.87  49 2.51  57 2.69  41 2.73  53 2.79
  62  0.506  0.506  0.452- 117 1.87 126 1.87  58 2.68  42 2.74
  63  0.841  0.620  0.549- 124 1.85 134 1.87  43 2.68  59 2.74  71 2.78
  64  0.670  0.390  0.657-  98 1.92  52 2.43  20 2.45   8 2.46  51 2.49  56 2.53  60 2.66  44 2.66

  65  0.132  0.842  0.343- 133 1.91  89 2.48  77 2.48  69 2.78  74 2.79  85 2.79
  66  0.997  0.663  0.428- 134 1.89 128 1.90  70 2.74  86 2.74
  67  0.334  0.781  0.560- 135 1.91 129 1.91  71 2.70  87 2.73
  68  0.204  0.937  0.659- 130 1.91  12 2.46  16 2.46  72 2.75  88 2.77
  69  0.408  0.877  0.328- 132 1.83 108 1.88  81 2.77  65 2.78
  70  0.253  0.671  0.443- 120 1.86 129 1.87  82 2.72  66 2.74
  71  0.081  0.775  0.549- 130 1.86 134 1.87  67 2.70  83 2.71  63 2.78  43 2.78
  72  0.423  0.900  0.669- 111 1.84 135 1.89  68 2.75  84 2.79
  73  0.411  0.715  0.322- 132 1.83 136 1.87  81 2.48  77 2.69  93 2.72
  74  0.255  0.841  0.447- 129 1.87 133 1.87  78 2.69  94 2.74  65 2.79
  75  0.081  0.941  0.553- 130 1.86 106 1.87  79 2.70  95 2.72
  76  0.417  0.715  0.657- 135 1.89  99 2.21  96 2.59
  77  0.161  0.714  0.321- 132 1.82 128 1.86  65 2.48  73 2.69  89 2.73
  78  0.007  0.841  0.447- 137 1.87 133 1.87  74 2.69  90 2.74
  79  0.330  0.940  0.553- 130 1.86 114 1.87  75 2.70  91 2.73
  80  0.153  0.710  0.661- 131 1.83 135 1.88  92 2.61
  81  0.632  0.844  0.343- 140 1.91  93 2.48  73 2.48  69 2.77  94 2.78  85 2.78  90 2.79
  82  0.497  0.663  0.431- 141 1.89 136 1.90  70 2.72  86 2.73
  83  0.837  0.781  0.560- 142 1.91 137 1.91  71 2.71  87 2.73
  84  0.703  0.939  0.660- 138 1.90  32 2.45  28 2.45  72 2.79
  85  0.908  0.878  0.329- 139 1.83 100 1.88  81 2.78  65 2.79
  86  0.753  0.672  0.444- 126 1.86 137 1.87  82 2.73  66 2.74
  87  0.578  0.771  0.556- 138 1.85 141 1.88  67 2.73  59 2.73  83 2.73  47 2.73
  88  0.926  0.898  0.669- 103 1.84 142 1.89  68 2.77
  89  0.910  0.715  0.321- 139 1.82 128 1.86  65 2.48  93 2.69  77 2.73
  90  0.754  0.842  0.446- 137 1.86 140 1.87  94 2.67  78 2.74  81 2.79
  91  0.581  0.938  0.554- 114 1.87 138 1.87  95 2.68  79 2.73
  92  0.912  0.709  0.662- 131 1.83 142 1.88  80 2.61
  93  0.662  0.715  0.322- 139 1.83 136 1.87  81 2.48  89 2.69  73 2.72
  94  0.508  0.841  0.446- 129 1.86 140 1.87  90 2.67  74 2.74  81 2.78
  95  0.829  0.940  0.555- 106 1.87 138 1.87  91 2.68  75 2.72
  96  0.654  0.713  0.657- 142 1.89  99 2.21  76 2.59
  97  0.544  0.542  0.728- 143 1.51  52 1.95  40 2.15  99 2.20
  98  0.564  0.410  0.716- 144 1.51  64 1.92  44 2.00  52 2.07
  99  0.481  0.643  0.717-  97 2.20  76 2.21  96 2.21  40 2.30
 100  0.992  0.989  0.359-  13 1.87  25 1.87  85 1.88   2 1.90
 101  0.334  0.112  0.491-  10 1.86  30 1.87   6 1.87   3 1.90
 102  0.161  0.215  0.589-   7 1.85  15 1.88  11 1.88   4 1.94
 103  1.000  1.000  0.707-  28 1.83  16 1.83  88 1.84
 104  0.335  0.114  0.292-   9 1.83   5 1.83  13 1.83
 105  0.178  0.238  0.421-  38 1.86  14 1.86  10 1.86   1 1.93
 106  0.000  0.003  0.519-   7 1.86  75 1.87  95 1.87   2 1.90
 107  0.351  0.135  0.651-  12 1.86  16 1.86   3 1.90   8 1.96
 108  0.491  0.989  0.358-   9 1.87  29 1.87  69 1.88  18 1.90
 109  0.834  0.112  0.491-  14 1.87  26 1.87  22 1.87  19 1.90
 110  0.659  0.213  0.587-  23 1.84  27 1.88  31 1.88  20 1.96
 111  0.501  0.001  0.709-  32 1.83  12 1.83  72 1.84
 112  0.836  0.114  0.292-  25 1.83  21 1.83  29 1.83
 113  0.678  0.237  0.421-  54 1.87  26 1.87  30 1.87  17 1.93
 114  0.503  0.001  0.518-  23 1.86  79 1.87  91 1.87  18 1.90
 115  0.852  0.136  0.652-  28 1.86  32 1.86  19 1.90  24 1.96
 116  0.991  0.321  0.366-  45 1.87  57 1.87  21 1.87  34 1.91
 117  0.338  0.451  0.491-  42 1.86  62 1.87  38 1.87  35 1.97
 118  0.176  0.570  0.592-  47 1.84  43 1.85  39 1.90  36 1.95
 119  0.322  0.430  0.288-  41 1.83  45 1.83  37 1.83
 120  0.171  0.562  0.412-  70 1.86  42 1.87  46 1.87  33 1.91
 121  0.013  0.351  0.526-  11 1.88  31 1.89  39 1.89  34 1.90
 122  0.491  0.321  0.366-  41 1.87  61 1.87   5 1.87  50 1.91
 123  0.837  0.450  0.492-  46 1.87  58 1.87  54 1.87  51 1.98
 124  0.679  0.570  0.591-  59 1.84  63 1.85  55 1.90  52 1.96
 125  0.821  0.428  0.287-  57 1.83  61 1.83  53 1.83
 126  0.673  0.563  0.412-  86 1.86  62 1.87  58 1.87  49 1.91
 127  0.513  0.350  0.525-  15 1.88  27 1.88  55 1.89  50 1.89
 128  0.983  0.645  0.348-  89 1.86  77 1.86  53 1.87  66 1.90
 129  0.334  0.777  0.479-  94 1.86  70 1.87  74 1.87  67 1.91
 130  0.158  0.878  0.588-  71 1.86  79 1.86  75 1.86  68 1.91
 131  0.981  0.639  0.690-  92 1.83  80 1.83  56 1.87
 132  0.333  0.776  0.289-  77 1.82  73 1.83  69 1.83
 133  0.179  0.906  0.412-   6 1.86  78 1.87  74 1.87  65 1.91
 134  0.005  0.673  0.508-  63 1.87  43 1.87  71 1.87  66 1.89
 135  0.336  0.787  0.641-  80 1.88  72 1.89  76 1.89  67 1.91
 136  0.485  0.646  0.351-  93 1.87  73 1.87  37 1.87  82 1.90
 137  0.832  0.778  0.479-  90 1.86  78 1.87  86 1.87  83 1.91
 138  0.658  0.876  0.591-  87 1.85  95 1.87  91 1.87  84 1.90
 139  0.832  0.777  0.290-  89 1.82  93 1.83  85 1.83
 140  0.680  0.907  0.412-  22 1.86  90 1.87  94 1.87  81 1.91
 141  0.504  0.673  0.510-  59 1.86  47 1.86  87 1.88  82 1.89
 142  0.843  0.785  0.641-  92 1.88  88 1.89  96 1.89  83 1.91
 143  0.548  0.541  0.792-  97 1.51
 144  0.560  0.408  0.780-  98 1.51
 

IMPORTANT INFORMATION: All symmetrisations will be switched off!
NOSYMM: (Re-)initialisation of all symmetry stuff for point group C_1.


----------------------------------------------------------------------------------------

                                     Primitive cell                                     

  volume of cell :    4013.5077

  direct lattice vectors                    reciprocal lattice vectors
    10.828000000  0.000000000  0.000000000     0.092353158  0.047808568  0.000000000
    -8.120979000 15.687524000  0.000000000     0.000000000  0.063744922  0.000000000
     0.000000000  0.000000000 23.627700000     0.000000000  0.000000000  0.042323205

  length of vectors
    10.828000000 17.664900486 23.627700000     0.103994063  0.063744922  0.042323205

  position of ions in fractional coordinates (direct lattice)
     0.143810000  0.191560000  0.345680000
     0.999180000  0.999580000  0.439170000
     0.337320000  0.116570000  0.571270000
     0.198350000  0.263910000  0.664850000
     0.409510000  0.213000000  0.332560000
     0.256560000  0.008930000  0.450890000
     0.081250000  0.109010000  0.555290000
     0.446690000  0.259530000  0.660210000
     0.419000000  0.057730000  0.327380000
     0.255380000  0.174930000  0.456730000
     0.090320000  0.286400000  0.560470000
     0.424620000  0.065140000  0.677730000
     0.167640000  0.057700000  0.328000000
     0.007060000  0.175200000  0.457040000
     0.339340000  0.286320000  0.560360000
     0.172220000  0.064360000  0.676790000
     0.643410000  0.191240000  0.344970000
     0.499140000  0.998150000  0.437960000
     0.838300000  0.117650000  0.571910000
     0.694370000  0.259550000  0.664000000
     0.909970000  0.212810000  0.332790000
     0.757490000  0.009640000  0.451250000
     0.580990000  0.107340000  0.552880000
     0.943040000  0.259990000  0.660390000
     0.919200000  0.057450000  0.328190000
     0.755650000  0.174960000  0.456580000
     0.590110000  0.286060000  0.560170000
     0.925370000  0.065140000  0.677180000
     0.667290000  0.057510000  0.327530000
     0.506820000  0.174730000  0.456300000
     0.839000000  0.286150000  0.560310000
     0.672880000  0.066180000  0.678270000
     0.133260000  0.511880000  0.337820000
     0.003280000  0.337870000  0.445720000
     0.334900000  0.446350000  0.574480000
     0.134480000  0.518800000  0.667450000
     0.401210000  0.534980000  0.322220000
     0.257940000  0.343850000  0.456330000
     0.092340000  0.457970000  0.561570000
     0.390370000  0.520010000  0.663750000
     0.408050000  0.378930000  0.327800000
     0.252660000  0.505580000  0.451660000
     0.089030000  0.619950000  0.549860000
     0.424460000  0.390780000  0.654690000
     0.160120000  0.378920000  0.327830000
     0.005010000  0.504990000  0.452340000
     0.341090000  0.619240000  0.552840000
     0.162380000  0.390630000  0.654630000
     0.634110000  0.511690000  0.338390000
     0.503510000  0.337820000  0.445610000
     0.833670000  0.445130000  0.575440000
     0.644250000  0.519530000  0.667130000
     0.900140000  0.533780000  0.320450000
     0.757400000  0.343190000  0.456470000
     0.594510000  0.457870000  0.561320000
     0.895360000  0.527180000  0.662940000
     0.907850000  0.378200000  0.327450000
     0.752820000  0.505500000  0.452430000
     0.587440000  0.619380000  0.552430000
     0.915000000  0.390090000  0.656900000
     0.659480000  0.378290000  0.327430000
     0.506110000  0.506130000  0.451780000
     0.841210000  0.620040000  0.549380000
     0.669740000  0.390310000  0.657010000
     0.131990000  0.842180000  0.343200000
     0.997120000  0.662760000  0.427960000
     0.334110000  0.780770000  0.560050000
     0.203920000  0.937120000  0.658640000
     0.407860000  0.877260000  0.328280000
     0.253350000  0.670880000  0.443350000
     0.081480000  0.775110000  0.549190000
     0.422580000  0.899790000  0.669110000
     0.410560000  0.714920000  0.322050000
     0.254620000  0.840660000  0.446580000
     0.081200000  0.941380000  0.553250000
     0.416730000  0.714740000  0.657350000
     0.161500000  0.714370000  0.320740000
     0.006770000  0.841250000  0.446850000
     0.329870000  0.940470000  0.552570000
     0.153400000  0.709860000  0.661410000
     0.632390000  0.844000000  0.342540000
     0.496770000  0.662680000  0.430650000
     0.836990000  0.780550000  0.560290000
     0.702620000  0.939230000  0.660000000
     0.908380000  0.877880000  0.329090000
     0.753430000  0.671700000  0.443540000
     0.578250000  0.771110000  0.555500000
     0.925980000  0.898170000  0.668530000
     0.909920000  0.714900000  0.320950000
     0.754370000  0.841690000  0.446250000
     0.580540000  0.938210000  0.554050000
     0.911640000  0.708680000  0.661650000
     0.662070000  0.715430000  0.322270000
     0.507530000  0.841000000  0.446010000
     0.828870000  0.939790000  0.554940000
     0.654030000  0.712600000  0.657360000
     0.544370000  0.542270000  0.727890000
     0.564380000  0.409610000  0.715690000
     0.480960000  0.642920000  0.716710000
     0.992360000  0.989060000  0.358910000
     0.334030000  0.111990000  0.490720000
     0.161390000  0.215020000  0.589250000
     0.999920000  0.999870000  0.707450000
     0.335060000  0.113860000  0.292010000
     0.178000000  0.237540000  0.421360000
     0.000090000  0.003170000  0.519480000
     0.351410000  0.135360000  0.650870000
     0.491170000  0.988670000  0.357710000
     0.834300000  0.112430000  0.491390000
     0.659410000  0.212700000  0.587280000
     0.500550000  0.001010000  0.708680000
     0.835770000  0.113540000  0.292390000
     0.678090000  0.237200000  0.420680000
     0.503320000  0.000780000  0.518190000
     0.851840000  0.135850000  0.651610000
     0.990930000  0.320990000  0.365800000
     0.338350000  0.450970000  0.490990000
     0.176340000  0.570230000  0.592160000
     0.322500000  0.430180000  0.287810000
     0.170890000  0.562270000  0.411600000
     0.013120000  0.350660000  0.525500000
     0.490550000  0.321050000  0.365730000
     0.837340000  0.449980000  0.491730000
     0.678970000  0.570330000  0.591420000
     0.821400000  0.428470000  0.287030000
     0.673030000  0.563090000  0.411830000
     0.512770000  0.350480000  0.525320000
     0.983270000  0.645020000  0.348380000
     0.334120000  0.776970000  0.479100000
     0.158490000  0.878230000  0.588000000
     0.980940000  0.639390000  0.690220000
     0.332710000  0.776290000  0.289080000
     0.179330000  0.905630000  0.412190000
     0.005350000  0.673330000  0.507590000
     0.336460000  0.787210000  0.640740000
     0.484650000  0.646040000  0.350860000
     0.831790000  0.777820000  0.479410000
     0.658010000  0.876440000  0.591140000
     0.832050000  0.777270000  0.289520000
     0.679950000  0.906880000  0.411920000
     0.503990000  0.672610000  0.510450000
     0.843100000  0.785210000  0.640940000
     0.548370000  0.541280000  0.791760000
     0.560440000  0.407970000  0.779580000

  ion indices of the primitive-cell ions
   primitive index   ion index
                 1           1
                 2           2
                 3           3
                 4           4
                 5           5
                 6           6
                 7           7
                 8           8
                 9           9
                10          10
                11          11
                12          12
                13          13
                14          14
                15          15
                16          16
                17          17
                18          18
                19          19
                20          20
                21          21
                22          22
                23          23
                24          24
                25          25
                26          26
                27          27
                28          28
                29          29
                30          30
                31          31
                32          32
                33          33
                34          34
                35          35
                36          36
                37          37
                38          38
                39          39
                40          40
                41          41
                42          42
                43          43
                44          44
                45          45
                46          46
                47          47
                48          48
                49          49
                50          50
                51          51
                52          52
                53          53
                54          54
                55          55
                56          56
                57          57
                58          58
                59          59
                60          60
                61          61
                62          62
                63          63
                64          64
                65          65
                66          66
                67          67
                68          68
                69          69
                70          70
                71          71
                72          72
                73          73
                74          74
                75          75
                76          76
                77          77
                78          78
                79          79
                80          80
                81          81
                82          82
                83          83
                84          84
                85          85
                86          86
                87          87
                88          88
                89          89
                90          90
                91          91
                92          92
                93          93
                94          94
                95          95
                96          96
                97          97
                98          98
                99          99
               100         100
               101         101
               102         102
               103         103
               104         104
               105         105
               106         106
               107         107
               108         108
               109         109
               110         110
               111         111
               112         112
               113         113
               114         114
               115         115
               116         116
               117         117
               118         118
               119         119
               120         120
               121         121
               122         122
               123         123
               124         124
               125         125
               126         126
               127         127
               128         128
               129         129
               130         130
               131         131
               132         132
               133         133
               134         134
               135         135
               136         136
               137         137
               138         138
               139         139
               140         140
               141         141
               142         142
               143         143
               144         144

----------------------------------------------------------------------------------------

 
 
 KPOINTS: K-Spacing Value to Generate K-Mesh: 0.04

Automatic generation of k-mesh.
 Grid dimensions read from file:
 generate k-points for:    3    2    1

 Generating k-lattice:

  Cartesian coordinates                     Fractional coordinates (reciprocal lattice)
     0.030784386  0.015936189  0.000000000     0.333333333 -0.000000000  0.000000000
     0.000000000  0.031872461  0.000000000     0.000000000  0.500000000  0.000000000
     0.000000000  0.000000000  0.042323205     0.000000000  0.000000000  1.000000000

  Length of vectors
     0.034664688  0.031872461  0.042323205

  Shift w.r.t. Gamma in fractional coordinates (k-lattice)
     0.000000000  0.000000000  0.000000000

 -----------------------------------------------------------------------------
|                                                                             |
|           W    W    AA    RRRRR   N    N  II  N    N   GGGG   !!!           |
|           W    W   A  A   R    R  NN   N  II  NN   N  G    G  !!!           |
|           W    W  A    A  R    R  N N  N  II  N N  N  G       !!!           |
|           W WW W  AAAAAA  RRRRR   N  N N  II  N  N N  G  GGG   !            |
|           WW  WW  A    A  R   R   N   NN  II  N   NN  G    G                |
|           W    W  A    A  R    R  N    N  II  N    N   GGGG   !!!           |
|                                                                             |
|     Your reciprocal lattice and k-lattice belong to different lattice       |
|     classes:                                                                |
|                                                                             |
|        The reciprocal lattice is simple monoclinic,                         |
|        whereas your k-lattice is base centered orthorhombic.                |
|                                                                             |
|     Results are often still useful ...                                      |
|                                                                             |
 -----------------------------------------------------------------------------

 
 Subroutine IBZKPT returns following result:
 ===========================================
 
 Found      4 irreducible k-points:
 
 Following reciprocal coordinates:
            Coordinates               Weight
  0.000000  0.000000  0.000000      1.000000
  0.333333 -0.000000  0.000000      2.000000
  0.000000  0.500000  0.000000      1.000000
  0.333333  0.500000  0.000000      2.000000
 
 Following cartesian coordinates:
            Coordinates               Weight
  0.000000  0.000000  0.000000      1.000000
  0.030784  0.015936  0.000000      2.000000
  0.000000  0.031872  0.000000      1.000000
  0.030784  0.047809  0.000000      2.000000
 


--------------------------------------------------------------------------------------------------------




 Dimension of arrays:
   k-points           NKPTS =      4   k-points in BZ     NKDIM =      4   number of bands    NBANDS=    816
   number of dos      NEDOS =    301   number of ions     NIONS =    144
   non local maximal  LDIM  =      6   non local SUM 2l+1 LMDIM =     18
   total plane-waves  NPLWV = 583200
   max r-space proj   IRMAX =   2333   max aug-charges    IRDMAX=   4408
   dimension x,y,z NGX =    54 NGY =   90 NGZ =  120
   dimension x,y,z NGXF=   108 NGYF=  180 NGZF=  240
   support grid    NGXF=   108 NGYF=  180 NGZF=  240
   ions per type =              96   2   1  45
   NGX,Y,Z   is equivalent  to a cutoff of   8.29,  8.47,  8.44 a.u.
   NGXF,Y,Z  is equivalent  to a cutoff of  16.58, 16.94, 16.89 a.u.

 SYSTEM =  unknown system                          
 POSCAR =  Cu96 C2 Cl1 O45                         

 Startparameter for this run:
   NWRITE =      2    write-flag & timer
   PREC   = normal    normal or accurate (medium, high low for compatibility)
   ISTART =      0    job   : 0-new  1-cont  2-samecut
   ICHARG =      2    charge: 1-file 2-atom 10-const
   ISPIN  =      1    spin polarized calculation?
   LNONCOLLINEAR =      F non collinear calculations
   LSORBIT =      F    spin-orbit coupling
   INIWAV =      1    electr: 0-lowe 1-rand  2-diag
   LASPH  =      F    aspherical Exc in radial PAW
 Electronic Relaxation 1
   ENCUT  =  400.0 eV  29.40 Ry    5.42 a.u.  17.66 28.81 38.53*2*pi/ulx,y,z
   ENINI  =  400.0     initial cutoff
   ENAUG  =  644.9 eV  augmentation charge cutoff
   NELM   =      6;   NELMIN=  6; NELMDL=  0     # of ELM steps 
   EDIFF  = 0.1E-03   stopping-criterion for ELM
   LREAL  =      T    real-space projection
   NLSPLINE    = F    spline interpolate recip. space projectors
   LCOMPAT=      F    compatible to vasp.4.4
   GGA_COMPAT  = T    GGA compatible to vasp.4.4-vasp.4.6
   LMAXPAW     = -100 max onsite density
   LMAXMIX     =    2 max onsite mixed and CHGCAR
   VOSKOWN=      0    Vosko Wilk Nusair interpolation
   ROPT   =   -0.00050  -0.00050  -0.00050  -0.00050
 Ionic relaxation
   EDIFFG = -.3E-01   stopping-criterion for IOM
   NSW    =      0    number of steps for IOM
   NBLOCK =      1;   KBLOCK =      1    inner block; outer block 
   IBRION =     -1    ionic relax: 0-MD 1-quasi-New 2-CG
   NFREE  =      1    steps in history (QN), initial steepest desc. (CG)
   ISIF   =      2    stress and relaxation
   IWAVPR =     10    prediction:  0-non 1-charg 2-wave 3-comb
   ISYM   =      0    0-nonsym 1-usesym 2-fastsym
   LCORR  =      T    Harris-Foulkes like correction to forces

   POTIM  = 0.0500    time-step for ionic-motion
   TEIN   =    0.0    initial temperature
   TEBEG  =    0.0;   TEEND  =   0.0 temperature during run
   SMASS  =  -3.00    Nose mass-parameter (am)
   estimated Nose-frequenzy (Omega)   =  0.10E-29 period in steps = 0.13E+48 mass=  -0.268E-26a.u.
   SCALEE = 1.0000    scale energy and forces
   NPACO  =    256;   APACO  = 10.0  distance and # of slots for P.C.
   PSTRESS=    0.0 pullay stress

  Mass of Ions in am
   POMASS =  63.55 12.01 35.45 16.00
  Ionic Valenz
   ZVAL   =  11.00  4.00  7.00  6.00
  Atomic Wigner-Seitz radii
   RWIGS  =  -1.00 -1.00 -1.00 -1.00
  virtual crystal weights 
   VCA    =   1.00  1.00  1.00  1.00
   NELECT =    1341.0000    total number of electrons
   NUPDOWN=      -1.0000    fix difference up-down

 DOS related values:
   EMIN   =  10.00;   EMAX   =-10.00  energy-range for DOS
   EFERMI =   0.00
   ISMEAR =     0;   SIGMA  =   0.05  broadening in eV -4-tet -1-fermi 0-gaus

 Electronic relaxation 2 (details)
   IALGO  =     68    algorithm
   LDIAG  =      T    sub-space diagonalisation (order eigenvalues)
   LSUBROT=      F    optimize rotation matrix (better conditioning)
   TURBO    =      0    0=normal 1=particle mesh
   IRESTART =      0    0=no restart 2=restart with 2 vectors
   NREBOOT  =      0    no. of reboots
   NMIN     =      0    reboot dimension
   EREF     =   0.00    reference energy to select bands
   IMIX   =      4    mixing-type and parameters
     AMIX     =   0.40;   BMIX     =  1.00
     AMIX_MAG =   1.60;   BMIX_MAG =  1.00
     AMIN     =   0.10
     WC   =   100.;   INIMIX=   1;  MIXPRE=   1;  MAXMIX= -45

 Intra band minimization:
   WEIMIN = 0.0000     energy-eigenvalue tresh-hold
   EBREAK =  0.31E-07  absolut break condition
   DEPER  =   0.30     relativ break condition  

   TIME   =   0.40     timestep for ELM

  volume/ion in A,a.u.               =      27.87       188.09
  Fermi-wavevector in a.u.,A,eV,Ry     =   1.135995  2.146719 17.558107  1.290484
  Thomas-Fermi vector in A             =   2.272700
 
 Write flags
   LWAVE        =      F    write WAVECAR
   LDOWNSAMPLE  =      F    k-point downsampling of WAVECAR
   LCHARG       =      F    write CHGCAR
   LVTOT        =      F    write LOCPOT, total local potential
   LVHAR        =      F    write LOCPOT, Hartree potential only
   LELF         =      F    write electronic localiz. function (ELF)
   LORBIT       =      0    0 simple, 1 ext, 2 COOP (PROOUT), +10 PAW based schemes


 Dipole corrections
   LMONO  =      F    monopole corrections only (constant potential shift)
   LDIPOL =      F    correct potential (dipole corrections)
   IDIPOL =      0    1-x, 2-y, 3-z, 4-all directions 
   EPSILON=  1.0000000 bulk dielectric constant

 Exchange correlation treatment:
   GGA     =    --    GGA type
   LEXCH   =     8    internal setting for exchange type
   LIBXC   =     F    Libxc                    
   VOSKOWN =     0    Vosko Wilk Nusair interpolation
   LHFCALC =     F    Hartree Fock is set to
   LHFONE  =     F    Hartree Fock one center treatment
   AEXX    =    0.0000 exact exchange contribution

 Linear response parameters
   LEPSILON=     F    determine dielectric tensor
   LRPA    =     F    only Hartree local field effects (RPA)
   LNABLA  =     F    use nabla operator in PAW spheres
   LVEL    =     F    velocity operator in full k-point grid
   CSHIFT  =0.1000    complex shift for real part using Kramers Kronig
   OMEGAMAX=  -1.0    maximum frequency
   DEG_THRESHOLD= 0.2000000E-02 threshold for treating states as degnerate
   RTIME   =   -0.100 relaxation time in fs
  (WPLASMAI=    0.000 imaginary part of plasma frequency in eV, 0.658/RTIME)
   DFIELD  = 0.0000000 0.0000000 0.0000000 field for delta impulse in time
 
  Optional k-point grid parameters
   LKPOINTS_OPT  =     F    use optional k-point grid
   KPOINTS_OPT_MODE=     1    mode for optional k-point grid
 
 Orbital magnetization related:
   ORBITALMAG=     F  switch on orbital magnetization
   LCHIMAG   =     F  perturbation theory with respect to B field
   DQ        =  0.001000  dq finite difference perturbation B field
   LLRAUG    =     F  two centre corrections for induced B field



--------------------------------------------------------------------------------------------------------


 Static calculation
 charge density and potential will be updated during run
 non-spin polarized calculation
 RMM-DIIS sequential band-by-band and
  variant of blocked Davidson during initial phase
 perform sub-space diagonalisation
    before iterative eigenvector-optimisation
 modified Broyden-mixing scheme, WC =      100.0
 initial mixing is a Kerker type mixing with AMIX =  0.4000 and BMIX =      1.0000
 Hartree-type preconditioning will be used
 using additional bands          145
 real space projection scheme for non local part
 use partial core corrections
 calculate Harris-corrections to forces 
   (improved forces if not selfconsistent)
 use gradient corrections 
 use of overlap-Matrix (Vanderbilt PP)
 Gauss-broadening in eV      SIGMA  =   0.05


--------------------------------------------------------------------------------------------------------


  energy-cutoff  :      400.00
  volume of cell :     4013.51
      direct lattice vectors                 reciprocal lattice vectors
    10.828000000  0.000000000  0.000000000     0.092353158  0.047808568  0.000000000
    -8.120979000 15.687524000  0.000000000     0.000000000  0.063744922  0.000000000
     0.000000000  0.000000000 23.627700000     0.000000000  0.000000000  0.042323205

  length of vectors
    10.828000000 17.664900486 23.627700000     0.103994063  0.063744922  0.042323205


 
 k-points in units of 2pi/SCALE and weight: K-Spacing Value to Generate K-Mesh: 0.04
   0.00000000  0.00000000  0.00000000       0.167
   0.03078439  0.01593619  0.00000000       0.333
   0.00000000  0.03187246  0.00000000       0.167
   0.03078439  0.04780865  0.00000000       0.333
 
 k-points in reciprocal lattice and weights: K-Spacing Value to Generate K-Mesh: 0.04
   0.00000000  0.00000000  0.00000000       0.167
   0.33333333 -0.00000000  0.00000000       0.333
   0.00000000  0.50000000  0.00000000       0.167
   0.33333333  0.50000000  0.00000000       0.333
 
 position of ions in fractional coordinates (direct lattice) 
   0.14381000  0.19156000  0.34568000
   0.99918000  0.99958000  0.43917000
   0.33732000  0.11657000  0.57127000
   0.19835000  0.26391000  0.66485000
   0.40951000  0.21300000  0.33256000
   0.25656000  0.00893000  0.45089000
   0.08125000  0.10901000  0.55529000
   0.44669000  0.25953000  0.66021000
   0.41900000  0.05773000  0.32738000
   0.25538000  0.17493000  0.45673000
   0.09032000  0.28640000  0.56047000
   0.42462000  0.06514000  0.67773000
   0.16764000  0.05770000  0.32800000
   0.00706000  0.17520000  0.45704000
   0.33934000  0.28632000  0.56036000
   0.17222000  0.06436000  0.67679000
   0.64341000  0.19124000  0.34497000
   0.49914000  0.99815000  0.43796000
   0.83830000  0.11765000  0.57191000
   0.69437000  0.25955000  0.66400000
   0.90997000  0.21281000  0.33279000
   0.75749000  0.00964000  0.45125000
   0.58099000  0.10734000  0.55288000
   0.94304000  0.25999000  0.66039000
   0.91920000  0.05745000  0.32819000
   0.75565000  0.17496000  0.45658000
   0.59011000  0.28606000  0.56017000
   0.92537000  0.06514000  0.67718000
   0.66729000  0.05751000  0.32753000
   0.50682000  0.17473000  0.45630000
   0.83900000  0.28615000  0.56031000
   0.67288000  0.06618000  0.67827000
   0.13326000  0.51188000  0.33782000
   0.00328000  0.33787000  0.44572000
   0.33490000  0.44635000  0.57448000
   0.13448000  0.51880000  0.66745000
   0.40121000  0.53498000  0.32222000
   0.25794000  0.34385000  0.45633000
   0.09234000  0.45797000  0.56157000
   0.39037000  0.52001000  0.66375000
   0.40805000  0.37893000  0.32780000
   0.25266000  0.50558000  0.45166000
   0.08903000  0.61995000  0.54986000
   0.42446000  0.39078000  0.65469000
   0.16012000  0.37892000  0.32783000
   0.00501000  0.50499000  0.45234000
   0.34109000  0.61924000  0.55284000
   0.16238000  0.39063000  0.65463000
   0.63411000  0.51169000  0.33839000
   0.50351000  0.33782000  0.44561000
   0.83367000  0.44513000  0.57544000
   0.64425000  0.51953000  0.66713000
   0.90014000  0.53378000  0.32045000
   0.75740000  0.34319000  0.45647000
   0.59451000  0.45787000  0.56132000
   0.89536000  0.52718000  0.66294000
   0.90785000  0.37820000  0.32745000
   0.75282000  0.50550000  0.45243000
   0.58744000  0.61938000  0.55243000
   0.91500000  0.39009000  0.65690000
   0.65948000  0.37829000  0.32743000
   0.50611000  0.50613000  0.45178000
   0.84121000  0.62004000  0.54938000
   0.66974000  0.39031000  0.65701000
   0.13199000  0.84218000  0.34320000
   0.99712000  0.66276000  0.42796000
   0.33411000  0.78077000  0.56005000
   0.20392000  0.93712000  0.65864000
   0.40786000  0.87726000  0.32828000
   0.25335000  0.67088000  0.44335000
   0.08148000  0.77511000  0.54919000
   0.42258000  0.89979000  0.66911000
   0.41056000  0.71492000  0.32205000
   0.25462000  0.84066000  0.44658000
   0.08120000  0.94138000  0.55325000
   0.41673000  0.71474000  0.65735000
   0.16150000  0.71437000  0.32074000
   0.00677000  0.84125000  0.44685000
   0.32987000  0.94047000  0.55257000
   0.15340000  0.70986000  0.66141000
   0.63239000  0.84400000  0.34254000
   0.49677000  0.66268000  0.43065000
   0.83699000  0.78055000  0.56029000
   0.70262000  0.93923000  0.66000000
   0.90838000  0.87788000  0.32909000
   0.75343000  0.67170000  0.44354000
   0.57825000  0.77111000  0.55550000
   0.92598000  0.89817000  0.66853000
   0.90992000  0.71490000  0.32095000
   0.75437000  0.84169000  0.44625000
   0.58054000  0.93821000  0.55405000
   0.91164000  0.70868000  0.66165000
   0.66207000  0.71543000  0.32227000
   0.50753000  0.84100000  0.44601000
   0.82887000  0.93979000  0.55494000
   0.65403000  0.71260000  0.65736000
   0.54437000  0.54227000  0.72789000
   0.56438000  0.40961000  0.71569000
   0.48096000  0.64292000  0.71671000
   0.99236000  0.98906000  0.35891000
   0.33403000  0.11199000  0.49072000
   0.16139000  0.21502000  0.58925000
   0.99992000  0.99987000  0.70745000
   0.33506000  0.11386000  0.29201000
   0.17800000  0.23754000  0.42136000
   0.00009000  0.00317000  0.51948000
   0.35141000  0.13536000  0.65087000
   0.49117000  0.98867000  0.35771000
   0.83430000  0.11243000  0.49139000
   0.65941000  0.21270000  0.58728000
   0.50055000  0.00101000  0.70868000
   0.83577000  0.11354000  0.29239000
   0.67809000  0.23720000  0.42068000
   0.50332000  0.00078000  0.51819000
   0.85184000  0.13585000  0.65161000
   0.99093000  0.32099000  0.36580000
   0.33835000  0.45097000  0.49099000
   0.17634000  0.57023000  0.59216000
   0.32250000  0.43018000  0.28781000
   0.17089000  0.56227000  0.41160000
   0.01312000  0.35066000  0.52550000
   0.49055000  0.32105000  0.36573000
   0.83734000  0.44998000  0.49173000
   0.67897000  0.57033000  0.59142000
   0.82140000  0.42847000  0.28703000
   0.67303000  0.56309000  0.41183000
   0.51277000  0.35048000  0.52532000
   0.98327000  0.64502000  0.34838000
   0.33412000  0.77697000  0.47910000
   0.15849000  0.87823000  0.58800000
   0.98094000  0.63939000  0.69022000
   0.33271000  0.77629000  0.28908000
   0.17933000  0.90563000  0.41219000
   0.00535000  0.67333000  0.50759000
   0.33646000  0.78721000  0.64074000
   0.48465000  0.64604000  0.35086000
   0.83179000  0.77782000  0.47941000
   0.65801000  0.87644000  0.59114000
   0.83205000  0.77727000  0.28952000
   0.67995000  0.90688000  0.41192000
   0.50399000  0.67261000  0.51045000
   0.84310000  0.78521000  0.64094000
   0.54837000  0.54128000  0.79176000
   0.56044000  0.40797000  0.77958000
 
 position of ions in cartesian coordinates  (Angst):
   0.00151994  3.00510210  8.16762334
   2.70155285 15.68093524 10.37657701
   2.70583844  1.82869467 13.49779618
   0.00452623  4.14009446 15.70887635
   2.70440575  3.34144261  7.85762791
   2.70551134  0.14008959 10.65349365
  -0.00549292  1.71009699 13.12022553
   2.72912164  4.07138310 15.59924382
   4.06810788  0.90564076  7.73523643
   1.34465178  2.74421857 10.79147942
  -1.34786343  4.49290687 13.24261702
   4.06878479  1.02188531 16.01320112
   1.34662543  0.90517013  7.74988560
  -1.34634984  2.74845420 10.79880401
   1.34917481  4.49165187 13.24001797
   1.34213195  1.00964904 15.99099108
   5.41378746  3.00008209  8.15084767
  -2.70126727 15.65850208 10.34798749
   8.12167922  1.84563720 13.51291791
   5.41083826  4.07169685 15.68879280
   8.12492962  3.33846198  7.86306228
   8.12381548  0.15122773 10.66199963
   5.41925383  1.68389883 13.06328278
   8.09986379  4.07859936 15.60349680
   9.48654736  0.90124825  7.75437486
   6.76133171  2.74468920 10.78793527
   4.06662383  4.48757312 13.23552871
   9.49090579  1.02188531 16.00020589
   6.75837862  0.90218951  7.73878058
   4.06886830  2.74108107 10.78131951
   6.76087386  4.48898499 13.23883659
   6.74849825  1.03820034 16.02596008
  -2.71402745  8.03012979  7.98190961
  -2.70831933  5.30034373 10.53133844
   0.00149822  7.00212634 13.57364110
  -2.75701447  8.13868745 15.77030837
  -0.00025947  8.39251159  7.61331749
   0.00057569  5.39415513 10.78202834
  -2.71930723  7.18441537 13.26860749
   0.00393607  8.15766936 15.68288588
   1.34108283  5.94447347  7.74516006
  -1.37000208  7.93129838 10.67168698
  -4.07058409  9.72548050 12.99192712
   1.42253671  6.13037063 15.46881891
  -1.34342200  5.94431659  7.74586889
  -4.04676491  7.92204274 10.68775382
  -1.33551252  9.71434236 13.06233767
  -1.41404739  6.12801750 15.46740125
   2.71071934  8.02714916  7.99537740
   2.70857715  5.29955936 10.52873940
   5.41208738  6.98298756 13.59632369
   2.75684678  8.15013934 15.76274750
   5.41189975  8.37368656  7.57149647
   5.41408842  5.38380136 10.78533622
   2.71900163  7.18284661 13.26270056
   5.41374037  8.27014890 15.66374744
   6.75884554  5.93302158  7.73689036
   4.04638008  7.93004338 10.68988031
   1.33082835  9.71653862 13.05265031
   6.73970730  6.11954624 15.52103613
   4.06876429  5.93443345  7.73641781
   1.36988798  7.93992652 10.67452231
   4.07329006  9.72689238 12.98058583
   4.08224541  6.12299749 15.52363518
  -5.41013837 13.21171896  8.10902664
   5.41455532 10.39706341 10.11171049
  -2.72287369 12.24834811 13.23269338
  -5.40228608 14.70109249 15.56214833
  -2.70790196 13.76203730  7.75650136
  -2.70492859 10.52444610 10.47534080
  -5.41238659 12.15955673 12.97609656
  -2.73147945 14.11547722 15.80953035
  -1.36030663 11.21532466  7.60930078
  -4.06995685 13.18787393 10.55165827
  -6.76569361 14.76792134 13.07202502
  -1.29203609 11.21250090 15.53166860
  -4.05266177 11.20669652  7.57834850
  -6.75846802 13.19712957 10.55803774
  -4.06570476 14.75364570 13.05595819
  -4.10374295 11.13594579 15.62759706
  -0.00658736 13.24027026  8.09343236
  -0.00258480 10.39580840 10.17526901
   2.72409756 12.24489686 13.23836403
  -0.01949775 14.73419317 15.59428200
   2.70669360 13.77176357  7.77563979
   2.70327845 10.53730987 10.47983006
  -0.00087712 12.09680663 13.12518735
   2.73249173 14.09006343 15.79582628
   4.04692587 11.21501091  7.58331032
   1.33297155 13.20403208 10.54386112
  -1.33309659 14.71819189 13.09092718
   4.11606252 11.11743451 15.63326771
   1.35890195 11.22332530  7.61449888
  -1.33420850 13.19320768 10.53819048
   1.34298951 14.74297818 13.11195584
   1.29482720 11.17892960 15.53190487
   1.49067508  8.50687364 17.19836655
   2.78467243  6.42576671 16.91010861
  -0.01330494 10.08582293 16.93420887
   2.71313859 15.51590249  8.48021781
   2.70740840  1.75684581 11.59458494
   0.00135802  3.37313141 13.92262222
   2.70721049 15.68548462 16.71541637
   2.70337501  1.78618148  6.89952468
  -0.00167335  3.72641445  9.95576767
  -0.02476898  0.04972945 12.27411760
   2.70581176  2.12346325 15.37856110
  -2.71057955 15.50978435  8.45186457
   8.12075873  1.76374832 11.61041550
   5.41275925  3.33673635 13.87607566
   5.41175321  0.01584440 16.74447844
   8.12766160  1.78116147  6.90850320
   5.41606230  3.72108069  9.93970084
   5.44361460  0.01223627 12.24363786
   8.12048852  2.13115014 15.39604560
   8.12303699  5.03553833  8.64301266
   0.00133590  7.07460270 11.60096442
  -2.72141634  8.94549681 13.99137883
  -0.00145275  6.74845907  6.80028834
  -2.71578594  8.82062412  9.72516132
  -2.70563914  5.50098717 12.41635635
   2.70443509  5.03647958  8.64135872
   5.41243939  7.05907205 11.61844892
   2.72024921  8.94706556 13.97389433
   5.41452333  6.72163341  6.78185873
   2.71472677  8.83348789  9.73059569
   2.70603284  5.49816341 12.41210336
   5.40865369 10.11876673  8.23141813
  -2.69190569 12.18873552 11.32003107
  -5.41595767 13.77725420 13.89308760
   5.42914556 10.03044597 16.30831109
  -2.70165091 12.17806801  6.83029552
  -5.41281697 14.20709236  9.73910166
  -5.41016899 10.56288053 11.99318424
  -2.74972700 12.34937577 15.13921250
   0.00131293 10.13476800  8.29001482
   2.68996223 12.20206992 11.32735566
   0.00738145 13.74917353 13.96727858
   2.69724405 12.19344178  6.84069170
  -0.00225484 14.22670177  9.73272218
  -0.00504797 10.55158552 12.06075946
   2.75241288 12.31800072 15.14393804
   1.54202685  8.49134299 18.70746775
   2.75532852  6.40003917 18.41968237
 


--------------------------------------------------------------------------------------------------------


 k-point   1 :   0.0000 0.0000 0.0000  plane waves:   72945
 k-point   2 :   0.3333-0.0000 0.0000  plane waves:   72891
 k-point   3 :   0.0000 0.5000 0.0000  plane waves:   73022
 k-point   4 :   0.3333 0.5000 0.0000  plane waves:   72903

 maximum and minimum number of plane-waves per node :      9161     9071

 maximum number of plane-waves:     73022
 maximum index in each direction: 
   IXMAX=   17   IYMAX=   28   IZMAX=   38
   IXMIN=  -17   IYMIN=  -29   IZMIN=  -38


 real space projection operators:
  total allocation   :      34517.45 KBytes
  max/ min on nodes  :       4481.83       3834.70


 parallel 3D FFT for wavefunctions:
    minimum data exchange during FFTs selected (reduces bandwidth)
 parallel 3D FFT for charge:
    minimum data exchange during FFTs selected (reduces bandwidth)


 total amount of memory used by VASP MPI-rank0    71762. kBytes
=======================================================================

   base      :      30000. kBytes
   nonlr-proj:      11146. kBytes
   fftplans  :       3702. kBytes
   grid      :       6164. kBytes
   one-center:        279. kBytes
   wavefun   :      20471. kBytes
 
     INWAV:  cpu time      0.0000: real time      0.0002
 Broyden mixing: mesh for mixing (old mesh)
   NGX = 35   NGY = 57   NGZ = 77
  (NGX  =108   NGY  =180   NGZ  =240)
  gives a total of 153615 points

 initial charge density was supplied:
 charge density of overlapping atoms calculated
 number of electron    1341.0000000 magnetization 
 keeping initial charge density in first step


--------------------------------------------------------------------------------------------------------


 Maximum index for non-local projection operator          339
 Maximum index for augmentation-charges          290 (set IRDMAX)


--------------------------------------------------------------------------------------------------------


 First call to EWALD:  gamma=   0.112
 Maximum number of real-space cells 4x 3x 2
 Maximum number of reciprocal cells 2x 3x 4

    FEWALD:  cpu time      0.0029: real time      0.0029


--------------------------------------- Iteration      1(   1)  ---------------------------------------


    POTLOK:  cpu time      0.0393: real time      0.0400
    SETDIJ:  cpu time      0.0039: real time      0.0039
     EDDAV:  cpu time      6.4817: real time      6.4825
       DOS:  cpu time      0.0013: real time      0.0013
    --------------------------------------------
      LOOP:  cpu time      6.5262: real time      6.5277

 eigenvalue-minimisations  :  6624
 total energy-change (2. order) : 0.1454891E+05  (-0.4799918E+05)
 number of electron    1341.0000000 magnetization 
 augmentation part     1341.0000000 magnetization 

 Free energy of the ion-electron system (eV)
  ---------------------------------------------------
  alpha Z        PSCENC =      2504.54364185
  Ewald energy   TEWEN  =    472548.30717529
  -Hartree energ DENC   =   -619357.34235353
  -exchange      EXHF   =         0.00000000
  -V(xc)+E(xc)   XCENC  =      5634.33920769
  PAW double counting   =    134044.88545846  -144287.89168035
  entropy T*S    EENTRO =        -0.03798984
  eigenvalues    EBANDS =      9774.35540858
  atomic energy  EATOM  =    153687.74869410
  Solvation  Ediel_sol  =         0.00000000
  ---------------------------------------------------
  free energy    TOTEN  =     14548.90756223 eV

  energy without entropy =    14548.94555207  energy(sigma->0) =    14548.92655715


--------------------------------------------------------------------------------------------------------




--------------------------------------- Iteration      1(   2)  ---------------------------------------


