<?xml version="1.0" encoding="ISO-8859-1"?>
<modeling>
 <generator>
  <i name="program" type="string">vasp </i>
  <i name="version" type="string">6.3.2  </i>
  <i name="subversion" type="string">27Jun22 (build May 08 2023 15:00:52) complex                          parallel </i>
  <i name="platform" type="string">LinuxIFC </i>
  <i name="date" type="string">2023 05 26 </i>
  <i name="time" type="string">21:43:18 </i>
 </generator>
 <incar>
  <i type="string" name="PREC">Normal</i>
  <i type="string" name="ALGO">F</i>
  <i type="int" name="ISPIN">     1</i>
  <i type="int" name="NELM">     6</i>
  <i type="int" name="NELMIN">     6</i>
  <i type="int" name="IBRION">     2</i>
  <i name="EDIFF">      0.00010000</i>
  <i name="EDIFFG">     -0.03000000</i>
  <i type="int" name="NSW">     0</i>
  <i type="int" name="ISIF">     2</i>
  <i type="int" name="ISYM">     0</i>
  <i name="ENCUT">    400.00000000</i>
  <i name="POTIM">      0.05000000</i>
  <i type="string" name="LREAL">A</i>
  <i type="int" name="ISMEAR">     0</i>
  <i name="SIGMA">      0.05000000</i>
  <i type="logical" name="LWAVE"> F  </i>
  <i type="logical" name="LCHARG"> F  </i>
  <i type="int" name="IVDW">    11</i>
 </incar>
 <primitive_cell>
  <structure name="primitive_cell" >
   <crystal>
    <varray name="basis" >
     <v>      10.82800000       0.00000000       0.00000000 </v>
     <v>      -8.12097900      15.68752400       0.00000000 </v>
     <v>       0.00000000       0.00000000      23.62770000 </v>
    </varray>
    <i name="volume">   4013.50767990 </i>
    <varray name="rec_basis" >
     <v>       0.09235316       0.04780857       0.00000000 </v>
     <v>       0.00000000       0.06374492       0.00000000 </v>
     <v>       0.00000000       0.00000000       0.04232321 </v>
    </varray>
   </crystal>
   <varray name="positions" >
    <v>       0.14381000       0.19156000       0.34568000 </v>
    <v>       0.99918000       0.99958000       0.43917000 </v>
    <v>       0.33732000       0.11657000       0.57127000 </v>
    <v>       0.19835000       0.26391000       0.66485000 </v>
    <v>       0.40951000       0.21300000       0.33256000 </v>
    <v>       0.25656000       0.00893000       0.45089000 </v>
    <v>       0.08125000       0.10901000       0.55529000 </v>
    <v>       0.44669000       0.25953000       0.66021000 </v>
    <v>       0.41900000       0.05773000       0.32738000 </v>
    <v>       0.25538000       0.17493000       0.45673000 </v>
    <v>       0.09032000       0.28640000       0.56047000 </v>
    <v>       0.42462000       0.06514000       0.67773000 </v>
    <v>       0.16764000       0.05770000       0.32800000 </v>
    <v>       0.00706000       0.17520000       0.45704000 </v>
    <v>       0.33934000       0.28632000       0.56036000 </v>
    <v>       0.17222000       0.06436000       0.67679000 </v>
    <v>       0.64341000       0.19124000       0.34497000 </v>
    <v>       0.49914000       0.99815000       0.43796000 </v>
    <v>       0.83830000       0.11765000       0.57191000 </v>
    <v>       0.69437000       0.25955000       0.66400000 </v>
    <v>       0.90997000       0.21281000       0.33279000 </v>
    <v>       0.75749000       0.00964000       0.45125000 </v>
    <v>       0.58099000       0.10734000       0.55288000 </v>
    <v>       0.94304000       0.25999000       0.66039000 </v>
    <v>       0.91920000       0.05745000       0.32819000 </v>
    <v>       0.75565000       0.17496000       0.45658000 </v>
    <v>       0.59011000       0.28606000       0.56017000 </v>
    <v>       0.92537000       0.06514000       0.67718000 </v>
    <v>       0.66729000       0.05751000       0.32753000 </v>
    <v>       0.50682000       0.17473000       0.45630000 </v>
    <v>       0.83900000       0.28615000       0.56031000 </v>
    <v>       0.67288000       0.06618000       0.67827000 </v>
    <v>       0.13326000       0.51188000       0.33782000 </v>
    <v>       0.00328000       0.33787000       0.44572000 </v>
    <v>       0.33490000       0.44635000       0.57448000 </v>
    <v>       0.13448000       0.51880000       0.66745000 </v>
    <v>       0.40121000       0.53498000       0.32222000 </v>
    <v>       0.25794000       0.34385000       0.45633000 </v>
    <v>       0.09234000       0.45797000       0.56157000 </v>
    <v>       0.39037000       0.52001000       0.66375000 </v>
    <v>       0.40805000       0.37893000       0.32780000 </v>
    <v>       0.25266000       0.50558000       0.45166000 </v>
    <v>       0.08903000       0.61995000       0.54986000 </v>
    <v>       0.42446000       0.39078000       0.65469000 </v>
    <v>       0.16012000       0.37892000       0.32783000 </v>
    <v>       0.00501000       0.50499000       0.45234000 </v>
    <v>       0.34109000       0.61924000       0.55284000 </v>
    <v>       0.16238000       0.39063000       0.65463000 </v>
    <v>       0.63411000       0.51169000       0.33839000 </v>
    <v>       0.50351000       0.33782000       0.44561000 </v>
    <v>       0.83367000       0.44513000       0.57544000 </v>
    <v>       0.64425000       0.51953000       0.66713000 </v>
    <v>       0.90014000       0.53378000       0.32045000 </v>
    <v>       0.75740000       0.34319000       0.45647000 </v>
    <v>       0.59451000       0.45787000       0.56132000 </v>
    <v>       0.89536000       0.52718000       0.66294000 </v>
    <v>       0.90785000       0.37820000       0.32745000 </v>
    <v>       0.75282000       0.50550000       0.45243000 </v>
    <v>       0.58744000       0.61938000       0.55243000 </v>
    <v>       0.91500000       0.39009000       0.65690000 </v>
    <v>       0.65948000       0.37829000       0.32743000 </v>
    <v>       0.50611000       0.50613000       0.45178000 </v>
    <v>       0.84121000       0.62004000       0.54938000 </v>
    <v>       0.66974000       0.39031000       0.65701000 </v>
    <v>       0.13199000       0.84218000       0.34320000 </v>
    <v>       0.99712000       0.66276000       0.42796000 </v>
    <v>       0.33411000       0.78077000       0.56005000 </v>
    <v>       0.20392000       0.93712000       0.65864000 </v>
    <v>       0.40786000       0.87726000       0.32828000 </v>
    <v>       0.25335000       0.67088000       0.44335000 </v>
    <v>       0.08148000       0.77511000       0.54919000 </v>
    <v>       0.42258000       0.89979000       0.66911000 </v>
    <v>       0.41056000       0.71492000       0.32205000 </v>
    <v>       0.25462000       0.84066000       0.44658000 </v>
    <v>       0.08120000       0.94138000       0.55325000 </v>
    <v>       0.41673000       0.71474000       0.65735000 </v>
    <v>       0.16150000       0.71437000       0.32074000 </v>
    <v>       0.00677000       0.84125000       0.44685000 </v>
    <v>       0.32987000       0.94047000       0.55257000 </v>
    <v>       0.15340000       0.70986000       0.66141000 </v>
    <v>       0.63239000       0.84400000       0.34254000 </v>
    <v>       0.49677000       0.66268000       0.43065000 </v>
    <v>       0.83699000       0.78055000       0.56029000 </v>
    <v>       0.70262000       0.93923000       0.66000000 </v>
    <v>       0.90838000       0.87788000       0.32909000 </v>
    <v>       0.75343000       0.67170000       0.44354000 </v>
    <v>       0.57825000       0.77111000       0.55550000 </v>
    <v>       0.92598000       0.89817000       0.66853000 </v>
    <v>       0.90992000       0.71490000       0.32095000 </v>
    <v>       0.75437000       0.84169000       0.44625000 </v>
    <v>       0.58054000       0.93821000       0.55405000 </v>
    <v>       0.91164000       0.70868000       0.66165000 </v>
    <v>       0.66207000       0.71543000       0.32227000 </v>
    <v>       0.50753000       0.84100000       0.44601000 </v>
    <v>       0.82887000       0.93979000       0.55494000 </v>
    <v>       0.65403000       0.71260000       0.65736000 </v>
    <v>       0.54437000       0.54227000       0.72789000 </v>
    <v>       0.56438000       0.40961000       0.71569000 </v>
    <v>       0.48096000       0.64292000       0.71671000 </v>
    <v>       0.99236000       0.98906000       0.35891000 </v>
    <v>       0.33403000       0.11199000       0.49072000 </v>
    <v>       0.16139000       0.21502000       0.58925000 </v>
    <v>       0.99992000       0.99987000       0.70745000 </v>
    <v>       0.33506000       0.11386000       0.29201000 </v>
    <v>       0.17800000       0.23754000       0.42136000 </v>
    <v>       0.00009000       0.00317000       0.51948000 </v>
    <v>       0.35141000       0.13536000       0.65087000 </v>
    <v>       0.49117000       0.98867000       0.35771000 </v>
    <v>       0.83430000       0.11243000       0.49139000 </v>
    <v>       0.65941000       0.21270000       0.58728000 </v>
    <v>       0.50055000       0.00101000       0.70868000 </v>
    <v>       0.83577000       0.11354000       0.29239000 </v>
    <v>       0.67809000       0.23720000       0.42068000 </v>
    <v>       0.50332000       0.00078000       0.51819000 </v>
    <v>       0.85184000       0.13585000       0.65161000 </v>
    <v>       0.99093000       0.32099000       0.36580000 </v>
    <v>       0.33835000       0.45097000       0.49099000 </v>
    <v>       0.17634000       0.57023000       0.59216000 </v>
    <v>       0.32250000       0.43018000       0.28781000 </v>
    <v>       0.17089000       0.56227000       0.41160000 </v>
    <v>       0.01312000       0.35066000       0.52550000 </v>
    <v>       0.49055000       0.32105000       0.36573000 </v>
    <v>       0.83734000       0.44998000       0.49173000 </v>
    <v>       0.67897000       0.57033000       0.59142000 </v>
    <v>       0.82140000       0.42847000       0.28703000 </v>
    <v>       0.67303000       0.56309000       0.41183000 </v>
    <v>       0.51277000       0.35048000       0.52532000 </v>
    <v>       0.98327000       0.64502000       0.34838000 </v>
    <v>       0.33412000       0.77697000       0.47910000 </v>
    <v>       0.15849000       0.87823000       0.58800000 </v>
    <v>       0.98094000       0.63939000       0.69022000 </v>
    <v>       0.33271000       0.77629000       0.28908000 </v>
    <v>       0.17933000       0.90563000       0.41219000 </v>
    <v>       0.00535000       0.67333000       0.50759000 </v>
    <v>       0.33646000       0.78721000       0.64074000 </v>
    <v>       0.48465000       0.64604000       0.35086000 </v>
    <v>       0.83179000       0.77782000       0.47941000 </v>
    <v>       0.65801000       0.87644000       0.59114000 </v>
    <v>       0.83205000       0.77727000       0.28952000 </v>
    <v>       0.67995000       0.90688000       0.41192000 </v>
    <v>       0.50399000       0.67261000       0.51045000 </v>
    <v>       0.84310000       0.78521000       0.64094000 </v>
    <v>       0.54837000       0.54128000       0.79176000 </v>
    <v>       0.56044000       0.40797000       0.77958000 </v>
   </varray>
  </structure>
  <varray name="primitive_index" >
   <v type="int" >        1 </v>
   <v type="int" >        2 </v>
   <v type="int" >        3 </v>
   <v type="int" >        4 </v>
   <v type="int" >        5 </v>
   <v type="int" >        6 </v>
   <v type="int" >        7 </v>
   <v type="int" >        8 </v>
   <v type="int" >        9 </v>
   <v type="int" >       10 </v>
   <v type="int" >       11 </v>
   <v type="int" >       12 </v>
   <v type="int" >       13 </v>
   <v type="int" >       14 </v>
   <v type="int" >       15 </v>
   <v type="int" >       16 </v>
   <v type="int" >       17 </v>
   <v type="int" >       18 </v>
   <v type="int" >       19 </v>
   <v type="int" >       20 </v>
   <v type="int" >       21 </v>
   <v type="int" >       22 </v>
   <v type="int" >       23 </v>
   <v type="int" >       24 </v>
   <v type="int" >       25 </v>
   <v type="int" >       26 </v>
   <v type="int" >       27 </v>
   <v type="int" >       28 </v>
   <v type="int" >       29 </v>
   <v type="int" >       30 </v>
   <v type="int" >       31 </v>
   <v type="int" >       32 </v>
   <v type="int" >       33 </v>
   <v type="int" >       34 </v>
   <v type="int" >       35 </v>
   <v type="int" >       36 </v>
   <v type="int" >       37 </v>
   <v type="int" >       38 </v>
   <v type="int" >       39 </v>
   <v type="int" >       40 </v>
   <v type="int" >       41 </v>
   <v type="int" >       42 </v>
   <v type="int" >       43 </v>
   <v type="int" >       44 </v>
   <v type="int" >       45 </v>
   <v type="int" >       46 </v>
   <v type="int" >       47 </v>
   <v type="int" >       48 </v>
   <v type="int" >       49 </v>
   <v type="int" >       50 </v>
   <v type="int" >       51 </v>
   <v type="int" >       52 </v>
   <v type="int" >       53 </v>
   <v type="int" >       54 </v>
   <v type="int" >       55 </v>
   <v type="int" >       56 </v>
   <v type="int" >       57 </v>
   <v type="int" >       58 </v>
   <v type="int" >       59 </v>
   <v type="int" >       60 </v>
   <v type="int" >       61 </v>
   <v type="int" >       62 </v>
   <v type="int" >       63 </v>
   <v type="int" >       64 </v>
   <v type="int" >       65 </v>
   <v type="int" >       66 </v>
   <v type="int" >       67 </v>
   <v type="int" >       68 </v>
   <v type="int" >       69 </v>
   <v type="int" >       70 </v>
   <v type="int" >       71 </v>
   <v type="int" >       72 </v>
   <v type="int" >       73 </v>
   <v type="int" >       74 </v>
   <v type="int" >       75 </v>
   <v type="int" >       76 </v>
   <v type="int" >       77 </v>
   <v type="int" >       78 </v>
   <v type="int" >       79 </v>
   <v type="int" >       80 </v>
   <v type="int" >       81 </v>
   <v type="int" >       82 </v>
   <v type="int" >       83 </v>
   <v type="int" >       84 </v>
   <v type="int" >       85 </v>
   <v type="int" >       86 </v>
   <v type="int" >       87 </v>
   <v type="int" >       88 </v>
   <v type="int" >       89 </v>
   <v type="int" >       90 </v>
   <v type="int" >       91 </v>
   <v type="int" >       92 </v>
   <v type="int" >       93 </v>
   <v type="int" >       94 </v>
   <v type="int" >       95 </v>
   <v type="int" >       96 </v>
   <v type="int" >       97 </v>
   <v type="int" >       98 </v>
   <v type="int" >       99 </v>
   <v type="int" >      100 </v>
   <v type="int" >      101 </v>
   <v type="int" >      102 </v>
   <v type="int" >      103 </v>
   <v type="int" >      104 </v>
   <v type="int" >      105 </v>
   <v type="int" >      106 </v>
   <v type="int" >      107 </v>
   <v type="int" >      108 </v>
   <v type="int" >      109 </v>
   <v type="int" >      110 </v>
   <v type="int" >      111 </v>
   <v type="int" >      112 </v>
   <v type="int" >      113 </v>
   <v type="int" >      114 </v>
   <v type="int" >      115 </v>
   <v type="int" >      116 </v>
   <v type="int" >      117 </v>
   <v type="int" >      118 </v>
   <v type="int" >      119 </v>
   <v type="int" >      120 </v>
   <v type="int" >      121 </v>
   <v type="int" >      122 </v>
   <v type="int" >      123 </v>
   <v type="int" >      124 </v>
   <v type="int" >      125 </v>
   <v type="int" >      126 </v>
   <v type="int" >      127 </v>
   <v type="int" >      128 </v>
   <v type="int" >      129 </v>
   <v type="int" >      130 </v>
   <v type="int" >      131 </v>
   <v type="int" >      132 </v>
   <v type="int" >      133 </v>
   <v type="int" >      134 </v>
   <v type="int" >      135 </v>
   <v type="int" >      136 </v>
   <v type="int" >      137 </v>
   <v type="int" >      138 </v>
   <v type="int" >      139 </v>
   <v type="int" >      140 </v>
   <v type="int" >      141 </v>
   <v type="int" >      142 </v>
   <v type="int" >      143 </v>
   <v type="int" >      144 </v>
  </varray>
 </primitive_cell>
 <kpoints>
  <generation param="Gamma">
   <v type="int" name="divisions">       3        2        1 </v>
   <v name="usershift">      0.00000000       0.00000000       0.00000000 </v>
   <v name="genvec1">      0.33333333      -0.00000000       0.00000000 </v>
   <v name="genvec2">      0.00000000       0.50000000       0.00000000 </v>
   <v name="genvec3">      0.00000000       0.00000000       1.00000000 </v>
   <v name="shift">      0.00000000       0.00000000       0.00000000 </v>
  </generation>
  <varray name="kpointlist" >
   <v>       0.00000000       0.00000000       0.00000000 </v>
   <v>       0.33333333      -0.00000000       0.00000000 </v>
   <v>       0.00000000       0.50000000       0.00000000 </v>
   <v>       0.33333333       0.50000000       0.00000000 </v>
  </varray>
  <varray name="weights" >
   <v>       0.16666667 </v>
   <v>       0.33333333 </v>
   <v>       0.16666667 </v>
   <v>       0.33333333 </v>
  </varray>
 </kpoints>
 <parameters>
  <separator name="general" >
   <i type="string" name="SYSTEM">unknown system</i>
   <i type="logical" name="LCOMPAT"> F  </i>
  </separator>
  <separator name="electronic" >
   <i type="string" name="PREC">normal</i>
   <i name="ENMAX">    400.00000000</i>
   <i name="ENAUG">    644.87300000</i>
   <i name="EDIFF">      0.00010000</i>
   <i type="int" name="IALGO">    68</i>
   <i type="int" name="IWAVPR">    10</i>
   <i type="int" name="NBANDS">   816</i>
   <i type="int" name="NBANDSLOW">    -1</i>
   <i type="int" name="NBANDSHIGH">    -1</i>
   <i name="NELECT">   1341.00000000</i>
   <i type="int" name="TURBO">     0</i>
   <i type="int" name="IRESTART">     0</i>
   <i type="int" name="NREBOOT">     0</i>
   <i type="int" name="NMIN">     0</i>
   <i name="EREF">      0.00000000</i>
   <separator name="electronic smearing" >
    <i type="int" name="ISMEAR">     0</i>
    <i name="SIGMA">      0.05000000</i>
    <i name="KSPACING">      0.50000000</i>
    <i type="logical" name="KGAMMA"> T  </i>
    <i type="logical" name="KBLOWUP"> T  </i>
   </separator>
   <separator name="electronic projectors" >
    <i type="logical" name="LREAL"> T  </i>
    <v name="ROPT">     -0.00050000     -0.00050000     -0.00050000     -0.00050000</v>
    <i type="int" name="LMAXPAW">  -100</i>
    <i type="int" name="LMAXMIX">     2</i>
    <i type="logical" name="NLSPLINE"> F  </i>
   </separator>
   <separator name="electronic startup" >
    <i type="int" name="ISTART">     0</i>
    <i type="int" name="ICHARG">     2</i>
    <i type="int" name="INIWAV">     1</i>
   </separator>
   <separator name="electronic spin" >
    <i type="int" name="ISPIN">     1</i>
    <i type="logical" name="LNONCOLLINEAR"> F  </i>
    <v name="MAGMOM">      1.00000000      1.00000000      1.00000000      1.00000000      1.00000000      1.00000000      1.00000000      1.00000000      1.00000000      1.00000000      1.00000000      1.00000000      1.00000000      1.00000000      1.00000000      1.00000000      1.00000000      1.00000000      1.00000000      1.00000000
      1.00000000      1.00000000      1.00000000      1.00000000      1.00000000      1.00000000      1.00000000      1.00000000      1.00000000      1.00000000      1.00000000      1.00000000      1.00000000      1.00000000      1.00000000      1.00000000      1.00000000      1.00000000      1.00000000      1.00000000
      1.00000000      1.00000000      1.00000000      1.00000000      1.00000000      1.00000000      1.00000000      1.00000000      1.00000000      1.00000000      1.00000000      1.00000000      1.00000000      1.00000000      1.00000000      1.00000000      1.00000000      1.00000000      1.00000000      1.00000000
      1.00000000      1.00000000      1.00000000      1.00000000      1.00000000      1.00000000      1.00000000      1.00000000      1.00000000      1.00000000      1.00000000      1.00000000      1.00000000      1.00000000      1.00000000      1.00000000      1.00000000      1.00000000      1.00000000      1.00000000
      1.00000000      1.00000000      1.00000000      1.00000000      1.00000000      1.00000000      1.00000000      1.00000000      1.00000000      1.00000000      1.00000000      1.00000000      1.00000000      1.00000000      1.00000000      1.00000000      1.00000000      1.00000000      1.00000000      1.00000000
      1.00000000      1.00000000      1.00000000      1.00000000      1.00000000      1.00000000      1.00000000      1.00000000      1.00000000      1.00000000      1.00000000      1.00000000      1.00000000      1.00000000      1.00000000      1.00000000      1.00000000      1.00000000      1.00000000      1.00000000
      1.00000000      1.00000000      1.00000000      1.00000000      1.00000000      1.00000000      1.00000000      1.00000000      1.00000000      1.00000000      1.00000000      1.00000000      1.00000000      1.00000000      1.00000000      1.00000000      1.00000000      1.00000000      1.00000000      1.00000000
      1.00000000      1.00000000      1.00000000      1.00000000</v>
    <i name="NUPDOWN">     -1.00000000</i>
    <i type="logical" name="LSORBIT"> F  </i>
    <v name="SAXIS">      0.00000000      0.00000000      1.00000000</v>
    <i type="logical" name="LSPIRAL"> F  </i>
    <v name="QSPIRAL">      0.00000000      0.00000000      0.00000000</v>
    <i type="logical" name="LZEROZ"> F  </i>
   </separator>
   <separator name="electronic exchange-correlation" >
    <i type="logical" name="LASPH"> F  </i>
    <i type="logical" name="LMETAGGA"> F  </i>
   </separator>
   <separator name="electronic convergence" >
    <i type="int" name="NELM">     6</i>
    <i type="int" name="NELMDL">     0</i>
    <i type="int" name="NELMIN">     6</i>
    <i name="ENINI">    400.00000000</i>
    <separator name="electronic convergence detail" >
     <i type="logical" name="LDIAG"> T  </i>
     <i type="logical" name="LSUBROT"> F  </i>
     <i name="WEIMIN">      0.00000000</i>
     <i name="EBREAK">      0.00000003</i>
     <i name="DEPER">      0.30000000</i>
     <i type="int" name="NRMM">     4</i>
     <i name="TIME">      0.40000000</i>
    </separator>
   </separator>
   <separator name="electronic mixer" >
    <i name="AMIX">      0.40000000</i>
    <i name="BMIX">      1.00000000</i>
    <i name="AMIN">      0.10000000</i>
    <i name="AMIX_MAG">      1.60000000</i>
    <i name="BMIX_MAG">      1.00000000</i>
    <separator name="electronic mixer details" >
     <i type="int" name="IMIX">     4</i>
     <i type="logical" name="MIXFIRST"> F  </i>
     <i type="int" name="MAXMIX">   -45</i>
     <i name="WC">    100.00000000</i>
     <i type="int" name="INIMIX">     1</i>
     <i type="int" name="MIXPRE">     1</i>
     <i type="int" name="MREMOVE">     5</i>
    </separator>
   </separator>
   <separator name="electronic dipolcorrection" >
    <i type="logical" name="LDIPOL"> F  </i>
    <i type="logical" name="LMONO"> F  </i>
    <i type="int" name="IDIPOL">     0</i>
    <i name="EPSILON">      1.00000000</i>
    <v name="DIPOL">   -100.00000000   -100.00000000   -100.00000000</v>
    <i name="EFIELD">      0.00000000</i>
   </separator>
  </separator>
  <separator name="grids" >
   <i type="int" name="NGX">    54</i>
   <i type="int" name="NGY">    90</i>
   <i type="int" name="NGZ">   120</i>
   <i type="int" name="NGXF">   108</i>
   <i type="int" name="NGYF">   180</i>
   <i type="int" name="NGZF">   240</i>
   <i type="logical" name="ADDGRID"> F  </i>
  </separator>
  <separator name="ionic" >
   <i type="int" name="NSW">     0</i>
   <i type="int" name="IBRION">    -1</i>
   <i type="int" name="MDALGO">     0</i>
   <i type="int" name="ISIF">     2</i>
   <i name="PSTRESS">      0.00000000</i>
   <i name="EDIFFG">     -0.03000000</i>
   <i type="int" name="NFREE">     1</i>
   <i name="POTIM">      0.05000000</i>
   <i name="SMASS">     -3.00000000</i>
   <i name="SCALEE">      1.00000000</i>
  </separator>
  <separator name="ionic md" >
   <i name="TEBEG">      0.00010000</i>
   <i name="TEEND">      0.00010000</i>
   <i type="int" name="NBLOCK">     1</i>
   <i type="int" name="KBLOCK">     1</i>
   <i type="int" name="NPACO">   256</i>
   <i name="APACO">     10.00000000</i>
  </separator>
  <separator name="symmetry" >
   <i type="int" name="ISYM">     0</i>
   <i name="SYMPREC">      0.00001000</i>
  </separator>
  <separator name="dos" >
   <i type="int" name="LORBIT">     0</i>
   <v name="RWIGS">     -1.00000000     -1.00000000     -1.00000000     -1.00000000</v>
   <i type="int" name="NEDOS">   301</i>
   <i name="EMIN">     10.00000000</i>
   <i name="EMAX">    -10.00000000</i>
   <i name="EFERMI">      0.00000000</i>
  </separator>
  <separator name="writing" >
   <i type="int" name="NWRITE">     2</i>
   <i type="logical" name="LWAVE"> F  </i>
   <i type="logical" name="LDOWNSAMPLE"> F  </i>
   <i type="logical" name="LCHARG"> F  </i>
   <i type="logical" name="LPARD"> F  </i>
   <i type="logical" name="LVTOT"> F  </i>
   <i type="logical" name="LVHAR"> F  </i>
   <i type="logical" name="LELF"> F  </i>
   <i type="logical" name="LOPTICS"> F  </i>
   <v name="STM">      0.00000000      0.00000000      0.00000000      0.00000000      0.00000000      0.00000000      0.00000000</v>
  </separator>
  <separator name="performance" >
   <i type="int" name="NPAR">    24</i>
   <i type="int" name="NSIM">     4</i>
   <i type="int" name="NBLK">    -1</i>
   <i type="logical" name="LPLANE"> T  </i>
   <i type="logical" name="LSCALAPACK"> T  </i>
   <i type="logical" name="LSCAAWARE"> T  </i>
   <i type="logical" name="LSCALU"> F  </i>
   <i type="logical" name="LASYNC"> F  </i>
   <i type="logical" name="LORBITALREAL"> F  </i>
  </separator>
  <separator name="miscellaneous" >
   <i type="int" name="IDIOT">     3</i>
   <i type="int" name="PHON_NSTRUCT">    -1</i>
   <i type="logical" name="LMUSIC"> F  </i>
   <v name="POMASS">     63.54600000     12.01100000     35.45300000     16.00000000</v>
   <v name="DARWINR">      0.00000000      0.00000000      0.00000000      0.00000000</v>
   <v name="DARWINV">      1.00000000      1.00000000      1.00000000      1.00000000</v>
   <i type="logical" name="LCORR"> T  </i>
  </separator>
  <i type="logical" name="GGA_COMPAT"> T  </i>
  <i type="logical" name="LBERRY"> F  </i>
  <i type="int" name="ICORELEVEL">     0</i>
  <i type="logical" name="LDAU"> F  </i>
  <i type="int" name="I_CONSTRAINED_M">     0</i>
  <separator name="electronic exchange-correlation" >
   <i type="string" name="GGA">--</i>
   <i type="int" name="VOSKOWN">     0</i>
   <i type="logical" name="LHFCALC"> F  </i>
   <i type="string" name="PRECFOCK"></i>
   <i type="logical" name="LSYMGRAD"> F  </i>
   <i type="logical" name="LHFONE"> F  </i>
   <i type="logical" name="LRHFCALC"> F  </i>
   <i type="logical" name="LTHOMAS"> F  </i>
   <i type="logical" name="LMODELHF"> F  </i>
   <i type="logical" name="LFOCKACE"> F  </i>
   <i name="ENCUT4O">     -1.00000000</i>
   <i type="int" name="EXXOEP">     0</i>
   <i type="int" name="FOURORBIT">     0</i>
   <i name="AEXX">      0.00000000</i>
   <i name="HFALPHA">      0.00000000</i>
   <i name="MCALPHA">      0.00000000</i>
   <i name="ALDAX">      1.00000000</i>
   <i name="AGGAX">      1.00000000</i>
   <i name="ALDAC">      1.00000000</i>
   <i name="AGGAC">      1.00000000</i>
   <i type="int" name="NKREDX">     1</i>
   <i type="int" name="NKREDY">     1</i>
   <i type="int" name="NKREDZ">     1</i>
   <i type="logical" name="SHIFTRED"> F  </i>
   <i type="logical" name="ODDONLY"> F  </i>
   <i type="logical" name="EVENONLY"> F  </i>
   <i type="int" name="LMAXFOCK">     0</i>
   <i type="int" name="NMAXFOCKAE">     0</i>
   <i type="logical" name="LFOCKAEDFT"> F  </i>
   <i name="HFSCREEN">      0.00000000</i>
   <i name="HFSCREENC">      0.00000000</i>
   <i type="int" name="NBANDSGWLOW">     0</i>
  </separator>
  <separator name="vdW DFT" >
   <i type="logical" name="LUSE_VDW"> F  </i>
   <i name="Zab_VDW">     -0.84910000</i>
   <i name="PARAM1">      0.12340000</i>
   <i name="PARAM2">      1.00000000</i>
   <i name="PARAM3">      0.00000000</i>
  </separator>
  <separator name="model GW" >
   <i type="int" name="MODEL_GW">     0</i>
   <i name="MODEL_EPS0">     16.72294867</i>
   <i name="MODEL_ALPHA">      1.00000000</i>
  </separator>
  <separator name="linear response parameters" >
   <i type="logical" name="LEPSILON"> F  </i>
   <i type="logical" name="LRPA"> F  </i>
   <i type="logical" name="LNABLA"> F  </i>
   <i type="logical" name="LVEL"> F  </i>
   <i name="CSHIFT">      0.10000000</i>
   <i name="OMEGAMAX">     -1.00000000</i>
   <i name="DEG_THRESHOLD">      0.00200000</i>
   <i name="RTIME">     -0.10000000</i>
   <i name="WPLASMAI">      0.00000000</i>
   <v name="DFIELD">      0.00000000      0.00000000      0.00000000</v>
   <v name="WPLASMA">      0.00000000      0.00000000      0.00000000      0.00000000      0.00000000      0.00000000      0.00000000      0.00000000      0.00000000</v>
  </separator>
  <separator name="orbital magnetization" >
   <i type="logical" name="NUCIND"> F  </i>
   <v name="MAGPOS">      0.00000000      0.00000000      0.00000000</v>
   <i type="logical" name="LNICSALL"> T  </i>
   <i type="logical" name="ORBITALMAG"> F  </i>
   <i type="logical" name="LMAGBLOCH"> F  </i>
   <i type="logical" name="LCHIMAG"> F  </i>
   <i type="logical" name="LGAUGE"> T  </i>
   <i type="int" name="MAGATOM">     0</i>
   <v name="MAGDIPOL">      0.00000000      0.00000000      0.00000000</v>
   <v name="AVECCONST">      0.00000000      0.00000000      0.00000000</v>
  </separator>
  <separator name="response functions" >
   <i type="logical" name="LFINITE_TEMPERATURE"> F  </i>
   <i type="logical" name="LADDER"> F  </i>
   <i type="logical" name="LRPAFORCE"> F  </i>
   <i type="logical" name="LFXC"> F  </i>
   <i type="logical" name="LHARTREE"> T  </i>
   <i type="int" name="IBSE">     0</i>
   <v type="int" name="KPOINT">    -1     0     0     0</v>
   <i type="logical" name="LTCTC"> F  </i>
   <i type="logical" name="LTCTE"> F  </i>
   <i type="logical" name="LTETE"> F  </i>
   <i type="logical" name="LTRIPLET"> F  </i>
   <i type="logical" name="LFXCEPS"> F  </i>
   <i type="logical" name="LFXHEG"> F  </i>
   <i type="int" name="NATURALO">     2</i>
   <i type="logical" name="LHOLEGF"> F  </i>
   <i type="logical" name="L2ORDER"> F  </i>
   <i type="logical" name="LDMP1"> F  </i>
   <i type="logical" name="LMP2LT"> F  </i>
   <i type="logical" name="LSMP2LT"> F  </i>
   <i type="logical" name="LGWLF"> F  </i>
   <i name="ENCUTGW">     -2.00000000</i>
   <i name="ENCUTGWSOFT">     -2.00000000</i>
   <i name="ENCUTLF">     -1.00000000</i>
   <i type="logical" name="LESF_SPLINES"> F  </i>
   <i type="int" name="LMAXMP2">    -1</i>
   <i name="SCISSOR">      0.00000000</i>
   <i type="int" name="NOMEGA">     0</i>
   <i type="int" name="NOMEGAR">     0</i>
   <i type="int" name="NBANDSGW">    -1</i>
   <i type="int" name="NBANDSO">    -1</i>
   <i type="int" name="NBANDSV">    -1</i>
   <i type="int" name="NELMGW">     1</i>
   <i type="int" name="NELMHF">     1</i>
   <i type="int" name="DIM">     3</i>
   <i type="int" name="IESPILON">     4</i>
   <i type="int" name="ANTIRES">     0</i>
   <i name="OMEGAMAX">    -30.00000000</i>
   <i name="OMEGAMIN">    -30.00000000</i>
   <i name="OMEGATL">   -200.00000000</i>
   <i type="int" name="OMEGAGRID">     0</i>
   <i name="CSHIFT">     -0.10000000</i>
   <i type="logical" name="LSELFENERGY"> F  </i>
   <i type="logical" name="LSPECTRAL"> F  </i>
   <i type="logical" name="LSPECTRALGW"> F  </i>
   <i type="logical" name="LSINGLES"> F  </i>
   <i type="logical" name="LFERMIGW"> F  </i>
   <i type="logical" name="ODDONLYGW"> F  </i>
   <i type="logical" name="EVENONLYGW"> F  </i>
   <i type="int" name="NKREDLFX">     1</i>
   <i type="int" name="NKREDLFY">     1</i>
   <i type="int" name="NKREDLFZ">     1</i>
   <i type="int" name="MAXMEM">  2800</i>
   <i type="int" name="TELESCOPE">     0</i>
   <i type="int" name="NTAUPAR">    -1</i>
   <i type="int" name="NOMEGAPAR">    -1</i>
   <i name="DAMP_NEWTON">      0.80000001</i>
   <i name="LAMBDA">      1.00000000</i>
  </separator>
  <separator name="External order field" >
   <i name="OFIELD_KAPPA">      0.00000000</i>
   <v name="OFIELD_K">      0.00000000      0.00000000      0.00000000</v>
   <i name="OFIELD_Q6_NEAR">      0.00000000</i>
   <i name="OFIELD_Q6_FAR">      0.00000000</i>
   <i name="OFIELD_A">      0.00000000</i>
  </separator>
  <separator name="optional k-points parameters" >
   <i type="int" name="KPOINTS_OPT_MODE">     1</i>
   <i type="logical" name="LKPOINTS_OPT"> F  </i>
  </separator>
 </parameters>
 <atominfo>
  <atoms>     144 </atoms>
  <types>       4 </types>
  <array name="atoms" >
   <dimension dim="1">ion</dimension>
   <field type="string">element</field>
   <field type="int">atomtype</field>
   <set>
    <rc><c>Cu</c><c>   1</c></rc>
    <rc><c>Cu</c><c>   1</c></rc>
    <rc><c>Cu</c><c>   1</c></rc>
    <rc><c>Cu</c><c>   1</c></rc>
    <rc><c>Cu</c><c>   1</c></rc>
    <rc><c>Cu</c><c>   1</c></rc>
    <rc><c>Cu</c><c>   1</c></rc>
    <rc><c>Cu</c><c>   1</c></rc>
    <rc><c>Cu</c><c>   1</c></rc>
    <rc><c>Cu</c><c>   1</c></rc>
    <rc><c>Cu</c><c>   1</c></rc>
    <rc><c>Cu</c><c>   1</c></rc>
    <rc><c>Cu</c><c>   1</c></rc>
    <rc><c>Cu</c><c>   1</c></rc>
    <rc><c>Cu</c><c>   1</c></rc>
    <rc><c>Cu</c><c>   1</c></rc>
    <rc><c>Cu</c><c>   1</c></rc>
    <rc><c>Cu</c><c>   1</c></rc>
    <rc><c>Cu</c><c>   1</c></rc>
    <rc><c>Cu</c><c>   1</c></rc>
    <rc><c>Cu</c><c>   1</c></rc>
    <rc><c>Cu</c><c>   1</c></rc>
    <rc><c>Cu</c><c>   1</c></rc>
    <rc><c>Cu</c><c>   1</c></rc>
    <rc><c>Cu</c><c>   1</c></rc>
    <rc><c>Cu</c><c>   1</c></rc>
    <rc><c>Cu</c><c>   1</c></rc>
    <rc><c>Cu</c><c>   1</c></rc>
    <rc><c>Cu</c><c>   1</c></rc>
    <rc><c>Cu</c><c>   1</c></rc>
    <rc><c>Cu</c><c>   1</c></rc>
    <rc><c>Cu</c><c>   1</c></rc>
    <rc><c>Cu</c><c>   1</c></rc>
    <rc><c>Cu</c><c>   1</c></rc>
    <rc><c>Cu</c><c>   1</c></rc>
    <rc><c>Cu</c><c>   1</c></rc>
    <rc><c>Cu</c><c>   1</c></rc>
    <rc><c>Cu</c><c>   1</c></rc>
    <rc><c>Cu</c><c>   1</c></rc>
    <rc><c>Cu</c><c>   1</c></rc>
    <rc><c>Cu</c><c>   1</c></rc>
    <rc><c>Cu</c><c>   1</c></rc>
    <rc><c>Cu</c><c>   1</c></rc>
    <rc><c>Cu</c><c>   1</c></rc>
    <rc><c>Cu</c><c>   1</c></rc>
    <rc><c>Cu</c><c>   1</c></rc>
    <rc><c>Cu</c><c>   1</c></rc>
    <rc><c>Cu</c><c>   1</c></rc>
    <rc><c>Cu</c><c>   1</c></rc>
    <rc><c>Cu</c><c>   1</c></rc>
    <rc><c>Cu</c><c>   1</c></rc>
    <rc><c>Cu</c><c>   1</c></rc>
    <rc><c>Cu</c><c>   1</c></rc>
    <rc><c>Cu</c><c>   1</c></rc>
    <rc><c>Cu</c><c>   1</c></rc>
    <rc><c>Cu</c><c>   1</c></rc>
    <rc><c>Cu</c><c>   1</c></rc>
    <rc><c>Cu</c><c>   1</c></rc>
    <rc><c>Cu</c><c>   1</c></rc>
    <rc><c>Cu</c><c>   1</c></rc>
    <rc><c>Cu</c><c>   1</c></rc>
    <rc><c>Cu</c><c>   1</c></rc>
    <rc><c>Cu</c><c>   1</c></rc>
    <rc><c>Cu</c><c>   1</c></rc>
    <rc><c>Cu</c><c>   1</c></rc>
    <rc><c>Cu</c><c>   1</c></rc>
    <rc><c>Cu</c><c>   1</c></rc>
    <rc><c>Cu</c><c>   1</c></rc>
    <rc><c>Cu</c><c>   1</c></rc>
    <rc><c>Cu</c><c>   1</c></rc>
    <rc><c>Cu</c><c>   1</c></rc>
    <rc><c>Cu</c><c>   1</c></rc>
    <rc><c>Cu</c><c>   1</c></rc>
    <rc><c>Cu</c><c>   1</c></rc>
    <rc><c>Cu</c><c>   1</c></rc>
    <rc><c>Cu</c><c>   1</c></rc>
    <rc><c>Cu</c><c>   1</c></rc>
    <rc><c>Cu</c><c>   1</c></rc>
    <rc><c>Cu</c><c>   1</c></rc>
    <rc><c>Cu</c><c>   1</c></rc>
    <rc><c>Cu</c><c>   1</c></rc>
    <rc><c>Cu</c><c>   1</c></rc>
    <rc><c>Cu</c><c>   1</c></rc>
    <rc><c>Cu</c><c>   1</c></rc>
    <rc><c>Cu</c><c>   1</c></rc>
    <rc><c>Cu</c><c>   1</c></rc>
    <rc><c>Cu</c><c>   1</c></rc>
    <rc><c>Cu</c><c>   1</c></rc>
    <rc><c>Cu</c><c>   1</c></rc>
    <rc><c>Cu</c><c>   1</c></rc>
    <rc><c>Cu</c><c>   1</c></rc>
    <rc><c>Cu</c><c>   1</c></rc>
    <rc><c>Cu</c><c>   1</c></rc>
    <rc><c>Cu</c><c>   1</c></rc>
    <rc><c>Cu</c><c>   1</c></rc>
    <rc><c>Cu</c><c>   1</c></rc>
    <rc><c>C </c><c>   2</c></rc>
    <rc><c>C </c><c>   2</c></rc>
    <rc><c>Cl</c><c>   3</c></rc>
    <rc><c>O </c><c>   4</c></rc>
    <rc><c>O </c><c>   4</c></rc>
    <rc><c>O </c><c>   4</c></rc>
    <rc><c>O </c><c>   4</c></rc>
    <rc><c>O </c><c>   4</c></rc>
    <rc><c>O </c><c>   4</c></rc>
    <rc><c>O </c><c>   4</c></rc>
    <rc><c>O </c><c>   4</c></rc>
    <rc><c>O </c><c>   4</c></rc>
    <rc><c>O </c><c>   4</c></rc>
    <rc><c>O </c><c>   4</c></rc>
    <rc><c>O </c><c>   4</c></rc>
    <rc><c>O </c><c>   4</c></rc>
    <rc><c>O </c><c>   4</c></rc>
    <rc><c>O </c><c>   4</c></rc>
    <rc><c>O </c><c>   4</c></rc>
    <rc><c>O </c><c>   4</c></rc>
    <rc><c>O </c><c>   4</c></rc>
    <rc><c>O </c><c>   4</c></rc>
    <rc><c>O </c><c>   4</c></rc>
    <rc><c>O </c><c>   4</c></rc>
    <rc><c>O </c><c>   4</c></rc>
    <rc><c>O </c><c>   4</c></rc>
    <rc><c>O </c><c>   4</c></rc>
    <rc><c>O </c><c>   4</c></rc>
    <rc><c>O </c><c>   4</c></rc>
    <rc><c>O </c><c>   4</c></rc>
    <rc><c>O </c><c>   4</c></rc>
    <rc><c>O </c><c>   4</c></rc>
    <rc><c>O </c><c>   4</c></rc>
    <rc><c>O </c><c>   4</c></rc>
    <rc><c>O </c><c>   4</c></rc>
    <rc><c>O </c><c>   4</c></rc>
    <rc><c>O </c><c>   4</c></rc>
    <rc><c>O </c><c>   4</c></rc>
    <rc><c>O </c><c>   4</c></rc>
    <rc><c>O </c><c>   4</c></rc>
    <rc><c>O </c><c>   4</c></rc>
    <rc><c>O </c><c>   4</c></rc>
    <rc><c>O </c><c>   4</c></rc>
    <rc><c>O </c><c>   4</c></rc>
    <rc><c>O </c><c>   4</c></rc>
    <rc><c>O </c><c>   4</c></rc>
    <rc><c>O </c><c>   4</c></rc>
    <rc><c>O </c><c>   4</c></rc>
   </set>
  </array>
  <array name="atomtypes" >
   <dimension dim="1">type</dimension>
   <field type="int">atomspertype</field>
   <field type="string">element</field>
   <field>mass</field>
   <field>valence</field>
   <field type="string">pseudopotential</field>
   <set>
    <rc><c>  96</c><c>Cu</c><c>     63.54600000</c><c>     11.00000000</c><c>  PAW_PBE Cu 22Jun2005                  </c></rc>
    <rc><c>   2</c><c>C </c><c>     12.01100000</c><c>      4.00000000</c><c>  PAW_PBE C 08Apr2002                   </c></rc>
    <rc><c>   1</c><c>Cl</c><c>     35.45300000</c><c>      7.00000000</c><c>  PAW_PBE Cl 06Sep2000                  </c></rc>
    <rc><c>  45</c><c>O </c><c>     16.00000000</c><c>      6.00000000</c><c>  PAW_PBE O 08Apr2002                   </c></rc>
   </set>
  </array>
 </atominfo>
 <structure name="initialpos" >
  <crystal>
   <varray name="basis" >
    <v>      10.82800000       0.00000000       0.00000000 </v>
    <v>      -8.12097900      15.68752400       0.00000000 </v>
    <v>       0.00000000       0.00000000      23.62770000 </v>
   </varray>
   <i name="volume">   4013.50767990 </i>
   <varray name="rec_basis" >
    <v>       0.09235316       0.04780857       0.00000000 </v>
    <v>       0.00000000       0.06374492       0.00000000 </v>
    <v>       0.00000000       0.00000000       0.04232321 </v>
   </varray>
  </crystal>
  <varray name="positions" >
   <v>       0.14381000       0.19156000       0.34568000 </v>
   <v>       0.99918000       0.99958000       0.43917000 </v>
   <v>       0.33732000       0.11657000       0.57127000 </v>
   <v>       0.19835000       0.26391000       0.66485000 </v>
   <v>       0.40951000       0.21300000       0.33256000 </v>
   <v>       0.25656000       0.00893000       0.45089000 </v>
   <v>       0.08125000       0.10901000       0.55529000 </v>
   <v>       0.44669000       0.25953000       0.66021000 </v>
   <v>       0.41900000       0.05773000       0.32738000 </v>
   <v>       0.25538000       0.17493000       0.45673000 </v>
   <v>       0.09032000       0.28640000       0.56047000 </v>
   <v>       0.42462000       0.06514000       0.67773000 </v>
   <v>       0.16764000       0.05770000       0.32800000 </v>
   <v>       0.00706000       0.17520000       0.45704000 </v>
   <v>       0.33934000       0.28632000       0.56036000 </v>
   <v>       0.17222000       0.06436000       0.67679000 </v>
   <v>       0.64341000       0.19124000       0.34497000 </v>
   <v>       0.49914000       0.99815000       0.43796000 </v>
   <v>       0.83830000       0.11765000       0.57191000 </v>
   <v>       0.69437000       0.25955000       0.66400000 </v>
   <v>       0.90997000       0.21281000       0.33279000 </v>
   <v>       0.75749000       0.00964000       0.45125000 </v>
   <v>       0.58099000       0.10734000       0.55288000 </v>
   <v>       0.94304000       0.25999000       0.66039000 </v>
   <v>       0.91920000       0.05745000       0.32819000 </v>
   <v>       0.75565000       0.17496000       0.45658000 </v>
   <v>       0.59011000       0.28606000       0.56017000 </v>
   <v>       0.92537000       0.06514000       0.67718000 </v>
   <v>       0.66729000       0.05751000       0.32753000 </v>
   <v>       0.50682000       0.17473000       0.45630000 </v>
   <v>       0.83900000       0.28615000       0.56031000 </v>
   <v>       0.67288000       0.06618000       0.67827000 </v>
   <v>       0.13326000       0.51188000       0.33782000 </v>
   <v>       0.00328000       0.33787000       0.44572000 </v>
   <v>       0.33490000       0.44635000       0.57448000 </v>
   <v>       0.13448000       0.51880000       0.66745000 </v>
   <v>       0.40121000       0.53498000       0.32222000 </v>
   <v>       0.25794000       0.34385000       0.45633000 </v>
   <v>       0.09234000       0.45797000       0.56157000 </v>
   <v>       0.39037000       0.52001000       0.66375000 </v>
   <v>       0.40805000       0.37893000       0.32780000 </v>
   <v>       0.25266000       0.50558000       0.45166000 </v>
   <v>       0.08903000       0.61995000       0.54986000 </v>
   <v>       0.42446000       0.39078000       0.65469000 </v>
   <v>       0.16012000       0.37892000       0.32783000 </v>
   <v>       0.00501000       0.50499000       0.45234000 </v>
   <v>       0.34109000       0.61924000       0.55284000 </v>
   <v>       0.16238000       0.39063000       0.65463000 </v>
   <v>       0.63411000       0.51169000       0.33839000 </v>
   <v>       0.50351000       0.33782000       0.44561000 </v>
   <v>       0.83367000       0.44513000       0.57544000 </v>
   <v>       0.64425000       0.51953000       0.66713000 </v>
   <v>       0.90014000       0.53378000       0.32045000 </v>
   <v>       0.75740000       0.34319000       0.45647000 </v>
   <v>       0.59451000       0.45787000       0.56132000 </v>
   <v>       0.89536000       0.52718000       0.66294000 </v>
   <v>       0.90785000       0.37820000       0.32745000 </v>
   <v>       0.75282000       0.50550000       0.45243000 </v>
   <v>       0.58744000       0.61938000       0.55243000 </v>
   <v>       0.91500000       0.39009000       0.65690000 </v>
   <v>       0.65948000       0.37829000       0.32743000 </v>
   <v>       0.50611000       0.50613000       0.45178000 </v>
   <v>       0.84121000       0.62004000       0.54938000 </v>
   <v>       0.66974000       0.39031000       0.65701000 </v>
   <v>       0.13199000       0.84218000       0.34320000 </v>
   <v>       0.99712000       0.66276000       0.42796000 </v>
   <v>       0.33411000       0.78077000       0.56005000 </v>
   <v>       0.20392000       0.93712000       0.65864000 </v>
   <v>       0.40786000       0.87726000       0.32828000 </v>
   <v>       0.25335000       0.67088000       0.44335000 </v>
   <v>       0.08148000       0.77511000       0.54919000 </v>
   <v>       0.42258000       0.89979000       0.66911000 </v>
   <v>       0.41056000       0.71492000       0.32205000 </v>
   <v>       0.25462000       0.84066000       0.44658000 </v>
   <v>       0.08120000       0.94138000       0.55325000 </v>
   <v>       0.41673000       0.71474000       0.65735000 </v>
   <v>       0.16150000       0.71437000       0.32074000 </v>
   <v>       0.00677000       0.84125000       0.44685000 </v>
   <v>       0.32987000       0.94047000       0.55257000 </v>
   <v>       0.15340000       0.70986000       0.66141000 </v>
   <v>       0.63239000       0.84400000       0.34254000 </v>
   <v>       0.49677000       0.66268000       0.43065000 </v>
   <v>       0.83699000       0.78055000       0.56029000 </v>
   <v>       0.70262000       0.93923000       0.66000000 </v>
   <v>       0.90838000       0.87788000       0.32909000 </v>
   <v>       0.75343000       0.67170000       0.44354000 </v>
   <v>       0.57825000       0.77111000       0.55550000 </v>
   <v>       0.92598000       0.89817000       0.66853000 </v>
   <v>       0.90992000       0.71490000       0.32095000 </v>
   <v>       0.75437000       0.84169000       0.44625000 </v>
   <v>       0.58054000       0.93821000       0.55405000 </v>
   <v>       0.91164000       0.70868000       0.66165000 </v>
   <v>       0.66207000       0.71543000       0.32227000 </v>
   <v>       0.50753000       0.84100000       0.44601000 </v>
   <v>       0.82887000       0.93979000       0.55494000 </v>
   <v>       0.65403000       0.71260000       0.65736000 </v>
   <v>       0.54437000       0.54227000       0.72789000 </v>
   <v>       0.56438000       0.40961000       0.71569000 </v>
   <v>       0.48096000       0.64292000       0.71671000 </v>
   <v>       0.99236000       0.98906000       0.35891000 </v>
   <v>       0.33403000       0.11199000       0.49072000 </v>
   <v>       0.16139000       0.21502000       0.58925000 </v>
   <v>       0.99992000       0.99987000       0.70745000 </v>
   <v>       0.33506000       0.11386000       0.29201000 </v>
   <v>       0.17800000       0.23754000       0.42136000 </v>
   <v>       0.00009000       0.00317000       0.51948000 </v>
   <v>       0.35141000       0.13536000       0.65087000 </v>
   <v>       0.49117000       0.98867000       0.35771000 </v>
   <v>       0.83430000       0.11243000       0.49139000 </v>
   <v>       0.65941000       0.21270000       0.58728000 </v>
   <v>       0.50055000       0.00101000       0.70868000 </v>
   <v>       0.83577000       0.11354000       0.29239000 </v>
   <v>       0.67809000       0.23720000       0.42068000 </v>
   <v>       0.50332000       0.00078000       0.51819000 </v>
   <v>       0.85184000       0.13585000       0.65161000 </v>
   <v>       0.99093000       0.32099000       0.36580000 </v>
   <v>       0.33835000       0.45097000       0.49099000 </v>
   <v>       0.17634000       0.57023000       0.59216000 </v>
   <v>       0.32250000       0.43018000       0.28781000 </v>
   <v>       0.17089000       0.56227000       0.41160000 </v>
   <v>       0.01312000       0.35066000       0.52550000 </v>
   <v>       0.49055000       0.32105000       0.36573000 </v>
   <v>       0.83734000       0.44998000       0.49173000 </v>
   <v>       0.67897000       0.57033000       0.59142000 </v>
   <v>       0.82140000       0.42847000       0.28703000 </v>
   <v>       0.67303000       0.56309000       0.41183000 </v>
   <v>       0.51277000       0.35048000       0.52532000 </v>
   <v>       0.98327000       0.64502000       0.34838000 </v>
   <v>       0.33412000       0.77697000       0.47910000 </v>
   <v>       0.15849000       0.87823000       0.58800000 </v>
   <v>       0.98094000       0.63939000       0.69022000 </v>
   <v>       0.33271000       0.77629000       0.28908000 </v>
   <v>       0.17933000       0.90563000       0.41219000 </v>
   <v>       0.00535000       0.67333000       0.50759000 </v>
   <v>       0.33646000       0.78721000       0.64074000 </v>
   <v>       0.48465000       0.64604000       0.35086000 </v>
   <v>       0.83179000       0.77782000       0.47941000 </v>
   <v>       0.65801000       0.87644000       0.59114000 </v>
   <v>       0.83205000       0.77727000       0.28952000 </v>
   <v>       0.67995000       0.90688000       0.41192000 </v>
   <v>       0.50399000       0.67261000       0.51045000 </v>
   <v>       0.84310000       0.78521000       0.64094000 </v>
   <v>       0.54837000       0.54128000       0.79176000 </v>
   <v>       0.56044000       0.40797000       0.77958000 </v>
  </varray>
 </structure>
 <calculation>
  <scstep>
   <time name="dav">    6.48    6.48</time>
   <time name="total">    6.53    6.53</time>
   <energy>
    <i name="alphaZ">   2504.54364185 </i>
    <i name="ewald"> 472548.30717529 </i>
    <i name="hartreedc">-619357.34235353 </i>
    <i name="XCdc">   5634.33920769 </i>
    <i name="pawpsdc"> 134044.88545846 </i>
    <i name="pawaedc">-144287.89168035 </i>
    <i name="eentropy">     -0.03798984 </i>
    <i name="bandstr">   9774.35540858 </i>
    <i name="atom"> 153687.74869410 </i>
    <i name="e_fr_energy">  14548.90756223 </i>
    <i name="e_wo_entrp">  14548.94555207 </i>
    <i name="e_0_energy">  14548.92655715 </i>
   </energy>
  </scstep>
  <scstep>
